 Entering Gaussian System, Link 0=/usr/local/g09/g09
 Initial command:
 /usr/local/g09/l1.exe "/scratch/webmodemo/webmo-4350/333022/Gau-16847.inp" -scrdir="/scratch/webmodemo/webmo-4350/333022/"
 Entering Link 1 = /usr/local/g09/l1.exe PID=     16848.
  
 Copyright (c) 1988,1990,1992,1993,1995,1998,2003,2009,2015,
            Gaussian, Inc.  All Rights Reserved.
  
 This is part of the Gaussian(R) 09 program.  It is based on
 the Gaussian(R) 03 system (copyright 2003, Gaussian, Inc.),
 the Gaussian(R) 98 system (copyright 1998, Gaussian, Inc.),
 the Gaussian(R) 94 system (copyright 1995, Gaussian, Inc.),
 the Gaussian 92(TM) system (copyright 1992, Gaussian, Inc.),
 the Gaussian 90(TM) system (copyright 1990, Gaussian, Inc.),
 the Gaussian 88(TM) system (copyright 1988, Gaussian, Inc.),
 the Gaussian 86(TM) system (copyright 1986, Carnegie Mellon
 University), and the Gaussian 82(TM) system (copyright 1983,
 Carnegie Mellon University). Gaussian is a federally registered
 trademark of Gaussian, Inc.
  
 This software contains proprietary and confidential information,
 including trade secrets, belonging to Gaussian, Inc.
  
 This software is provided under written license and may be
 used, copied, transmitted, or stored only in accord with that
 written license.
  
 The following legend is applicable only to US Government
 contracts under FAR:
  
                    RESTRICTED RIGHTS LEGEND
  
 Use, reproduction and disclosure by the US Government is
 subject to restrictions as set forth in subparagraphs (a)
 and (c) of the Commercial Computer Software - Restricted
 Rights clause in FAR 52.227-19.
  
 Gaussian, Inc.
 340 Quinnipiac St., Bldg. 40, Wallingford CT 06492
  
  
 ---------------------------------------------------------------
 Warning -- This program may not be used in any manner that
 competes with the business of Gaussian, Inc. or will provide
 assistance to any competitor of Gaussian, Inc.  The licensee
 of this program is prohibited from giving any competitor of
 Gaussian, Inc. access to this program.  By using this program,
 the user acknowledges that Gaussian, Inc. is engaged in the
 business of creating and licensing software in the field of
 computational chemistry and represents and warrants to the
 licensee that it is not a competitor of Gaussian, Inc. and that
 it will not use this program in any manner prohibited above.
 ---------------------------------------------------------------
  

 Cite this work as:
 Gaussian 09, Revision E.01,
 M. J. Frisch, G. W. Trucks, H. B. Schlegel, G. E. Scuseria, 
 M. A. Robb, J. R. Cheeseman, G. Scalmani, V. Barone, B. Mennucci, 
 G. A. Petersson, H. Nakatsuji, M. Caricato, X. Li, H. P. Hratchian, 
 A. F. Izmaylov, J. Bloino, G. Zheng, J. L. Sonnenberg, M. Hada, 
 M. Ehara, K. Toyota, R. Fukuda, J. Hasegawa, M. Ishida, T. Nakajima, 
 Y. Honda, O. Kitao, H. Nakai, T. Vreven, J. A. Montgomery, Jr., 
 J. E. Peralta, F. Ogliaro, M. Bearpark, J. J. Heyd, E. Brothers, 
 K. N. Kudin, V. N. Staroverov, T. Keith, R. Kobayashi, J. Normand, 
 K. Raghavachari, A. Rendell, J. C. Burant, S. S. Iyengar, J. Tomasi, 
 M. Cossi, N. Rega, J. M. Millam, M. Klene, J. E. Knox, J. B. Cross, 
 V. Bakken, C. Adamo, J. Jaramillo, R. Gomperts, R. E. Stratmann, 
 O. Yazyev, A. J. Austin, R. Cammi, C. Pomelli, J. W. Ochterski, 
 R. L. Martin, K. Morokuma, V. G. Zakrzewski, G. A. Voth, 
 P. Salvador, J. J. Dannenberg, S. Dapprich, A. D. Daniels, 
 O. Farkas, J. B. Foresman, J. V. Ortiz, J. Cioslowski, 
 and D. J. Fox, Gaussian, Inc., Wallingford CT, 2013.
 
 ******************************************
 Gaussian 09:  EM64L-G09RevE.01 30-Nov-2015
                13-Oct-2017 
 ******************************************
 ---------------------------------------
 #N B3LYP/6-31G(d) OPT Geom=Connectivity
 ---------------------------------------
 1/14=-1,18=20,19=15,26=3,38=1,57=2/1,3;
 2/9=110,12=2,17=6,18=5,40=1/2;
 3/5=1,6=6,7=1,11=2,16=1,25=1,30=1,71=1,74=-5/1,2,3;
 4//1;
 5/5=2,38=5/2;
 6/7=2,8=2,9=2,10=2,28=1/1;
 7//1,2,3,16;
 1/14=-1,18=20,19=15,26=3/3(2);
 2/9=110/2;
 99//99;
 2/9=110/2;
 3/5=1,6=6,7=1,11=2,16=1,25=1,30=1,71=1,74=-5/1,2,3;
 4/5=5,16=3,69=1/1;
 5/5=2,38=5/2;
 7//1,2,3,16;
 1/14=-1,18=20,19=15,26=3/3(-5);
 2/9=110/2;
 6/7=2,8=2,9=2,10=2,19=2,28=1/1;
 99/9=1/99;
 ---
 CO2
 ---
 Symbolic Z-matrix:
 Charge =  0 Multiplicity = 1
 C
 O                    1    B1
 O                    1    B2       2    A1
       Variables:
  B1                    1.2                      
  B2                    1.2                      
  A1                  180.                       
 

 GradGradGradGradGradGradGradGradGradGradGradGradGradGradGradGradGradGrad
 Berny optimization.
 Initialization pass.
                           ----------------------------
                           !    Initial Parameters    !
                           ! (Angstroms and Degrees)  !
 --------------------------                            --------------------------
 ! Name  Definition              Value          Derivative Info.                !
 --------------------------------------------------------------------------------
 ! R1    R(1,2)                  1.2            estimate D2E/DX2                !
 ! R2    R(1,3)                  1.2            estimate D2E/DX2                !
 ! A1    L(2,1,3,-1,-1)        180.0            estimate D2E/DX2                !
 ! A2    L(2,1,3,-2,-2)        180.0            estimate D2E/DX2                !
 --------------------------------------------------------------------------------
 Trust Radius=3.00D-01 FncErr=1.00D-07 GrdErr=1.00D-06
 Number of steps in this run=     20 maximum allowed number of steps=    100.
 GradGradGradGradGradGradGradGradGradGradGradGradGradGradGradGradGradGrad

                          Input orientation:                          
 ---------------------------------------------------------------------
 Center     Atomic      Atomic             Coordinates (Angstroms)
 Number     Number       Type             X           Y           Z
 ---------------------------------------------------------------------
      1          6           0        0.000000    0.000000    0.000000
      2          8           0        0.000000    0.000000    1.200000
      3          8           0        0.000000    0.000000   -1.200000
 ---------------------------------------------------------------------
                    Distance matrix (angstroms):
                    1          2          3
     1  C    0.000000
     2  O    1.200000   0.000000
     3  O    1.200000   2.400000   0.000000
 Stoichiometry    CO2
 Framework group  D*H[O(C),C*(O.O)]
 Deg. of freedom     1
 Full point group                 D*H     NOp   8
 Largest Abelian subgroup         D2H     NOp   8
 Largest concise Abelian subgroup C2      NOp   2
                         Standard orientation:                         
 ---------------------------------------------------------------------
 Center     Atomic      Atomic             Coordinates (Angstroms)
 Number     Number       Type             X           Y           Z
 ---------------------------------------------------------------------
      1          6           0        0.000000    0.000000    0.000000
      2          8           0        0.000000    0.000000    1.200000
      3          8           0        0.000000    0.000000   -1.200000
 ---------------------------------------------------------------------
 Rotational constants (GHZ):      0.0000000     10.9709133     10.9709133
 Standard basis: 6-31G(d) (6D, 7F)
 There are    14 symmetry adapted cartesian basis functions of AG  symmetry.
 There are     2 symmetry adapted cartesian basis functions of B1G symmetry.
 There are     4 symmetry adapted cartesian basis functions of B2G symmetry.
 There are     4 symmetry adapted cartesian basis functions of B3G symmetry.
 There are     1 symmetry adapted cartesian basis functions of AU  symmetry.
 There are    10 symmetry adapted cartesian basis functions of B1U symmetry.
 There are     5 symmetry adapted cartesian basis functions of B2U symmetry.
 There are     5 symmetry adapted cartesian basis functions of B3U symmetry.
 There are    14 symmetry adapted basis functions of AG  symmetry.
 There are     2 symmetry adapted basis functions of B1G symmetry.
 There are     4 symmetry adapted basis functions of B2G symmetry.
 There are     4 symmetry adapted basis functions of B3G symmetry.
 There are     1 symmetry adapted basis functions of AU  symmetry.
 There are    10 symmetry adapted basis functions of B1U symmetry.
 There are     5 symmetry adapted basis functions of B2U symmetry.
 There are     5 symmetry adapted basis functions of B3U symmetry.
    45 basis functions,    84 primitive gaussians,    45 cartesian basis functions
    11 alpha electrons       11 beta electrons
       nuclear repulsion energy        56.4455689163 Hartrees.
 NAtoms=    3 NActive=    3 NUniq=    2 SFac= 2.25D+00 NAtFMM=   60 NAOKFM=F Big=F
 Integral buffers will be    131072 words long.
 Raffenetti 2 integral format.
 Two-electron integral symmetry is turned on.
 One-electron integrals computed using PRISM.
 NBasis=    45 RedAO= T EigKep=  4.60D-03  NBF=    14     2     4     4     1    10     5     5
 NBsUse=    45 1.00D-06 EigRej= -1.00D+00 NBFU=    14     2     4     4     1    10     5     5
 ExpMin= 1.69D-01 ExpMax= 5.48D+03 ExpMxC= 8.25D+02 IAcc=1 IRadAn=         1 AccDes= 0.00D+00
 Harris functional with IExCor=  402 and IRadAn=       1 diagonalized for initial guess.
 HarFok:  IExCor=  402 AccDes= 0.00D+00 IRadAn=         1 IDoV= 1 UseB2=F ITyADJ=14
 ICtDFT=  3500011 ScaDFX=  1.000000  1.000000  1.000000  1.000000
 FoFCou: FMM=F IPFlag=           0 FMFlag=      100000 FMFlg1=           0
         NFxFlg=           0 DoJE=T BraDBF=F KetDBF=T FulRan=T
         wScrn=  0.000000 ICntrl=     500 IOpCl=  0 I1Cent=   200000004 NGrid=           0
         NMat0=    1 NMatS0=      1 NMatT0=    0 NMatD0=    1 NMtDS0=    0 NMtDT0=    0
 Petite list used in FoFCou.
 Initial guess orbital symmetries:
       Occupied  (SGU) (SGG) (SGG) (SGG) (SGU) (SGG) (SGU) (PIU)
                 (PIU) (PIG) (PIG)
       Virtual   (PIU) (PIU) (SGG) (SGU) (PIU) (PIU) (SGG) (SGU)
                 (SGG) (PIG) (PIG) (SGU) (PIU) (PIU) (SGG) (PIG)
                 (PIG) (DLTG) (DLTG) (DLTU) (DLTU) (SGU) (DLTG)
                 (DLTG) (PIU) (PIU) (SGG) (SGU) (PIG) (PIG) (SGG)
                 (SGG) (SGG) (SGU)
 The electronic state of the initial guess is 1-SGG.
 Keep R1 ints in memory in symmetry-blocked form, NReq=1431462.
 Requested convergence on RMS density matrix=1.00D-08 within 128 cycles.
 Requested convergence on MAX density matrix=1.00D-06.
 Requested convergence on             energy=1.00D-06.
 No special actions if energy rises.
 Integral accuracy reduced to 1.0D-05 until final iterations.
 Initial convergence to 1.0D-05 achieved.  Increase integral accuracy.
 SCF Done:  E(RB3LYP) =  -188.577338587     A.U. after   10 cycles
            NFock= 10  Conv=0.19D-08     -V/T= 2.0103

 **********************************************************************

            Population analysis using the SCF density.

 **********************************************************************

 Orbital symmetries:
       Occupied  (SGG) (SGU) (SGG) (SGG) (SGU) (SGG) (SGU) (PIU)
                 (PIU) (PIG) (PIG)
       Virtual   (PIU) (PIU) (SGG) (SGU) (PIU) (PIU) (SGG) (SGU)
                 (SGG) (PIG) (PIG) (SGU) (PIU) (PIU) (SGG) (PIG)
                 (PIG) (DLTG) (DLTG) (DLTU) (DLTU) (SGU) (DLTG)
                 (DLTG) (PIU) (PIU) (SGG) (SGU) (PIG) (PIG) (SGG)
                 (SGG) (SGG) (SGU)
 The electronic state is 1-SGG.
 Alpha  occ. eigenvalues --  -19.24302 -19.24302 -10.39624  -1.14673  -1.10557
 Alpha  occ. eigenvalues --   -0.56796  -0.51556  -0.50249  -0.50249  -0.36893
 Alpha  occ. eigenvalues --   -0.36893
 Alpha virt. eigenvalues --    0.00924   0.00924   0.06742   0.36769   0.47671
 Alpha virt. eigenvalues --    0.47671   0.56440   0.70349   0.78214   0.87254
 Alpha virt. eigenvalues --    0.87254   0.98734   1.03321   1.03321   1.36125
 Alpha virt. eigenvalues --    1.38330   1.38330   1.40587   1.40588   1.72876
 Alpha virt. eigenvalues --    1.72876   1.82961   2.00104   2.00105   2.07651
 Alpha virt. eigenvalues --    2.07651   2.61766   2.87824   2.89961   2.89961
 Alpha virt. eigenvalues --    3.00475   3.70034   4.32801   4.41619
          Condensed to atoms (all electrons):
               1          2          3
     1  C    4.160483   0.556044   0.556044
     2  O    0.556044   7.830927  -0.023257
     3  O    0.556044  -0.023257   7.830927
 Mulliken charges:
               1
     1  C    0.727428
     2  O   -0.363714
     3  O   -0.363714
 Sum of Mulliken charges =   0.00000
 Mulliken charges with hydrogens summed into heavy atoms:
               1
     1  C    0.727428
     2  O   -0.363714
     3  O   -0.363714
 Electronic spatial extent (au):  <R**2>=            118.1100
 Charge=              0.0000 electrons
 Dipole moment (field-independent basis, Debye):
    X=             -0.0000    Y=             -0.0000    Z=              0.0000  Tot=              0.0000
 Quadrupole moment (field-independent basis, Debye-Ang):
   XX=            -14.5939   YY=            -14.5939   ZZ=            -19.0084
   XY=              0.0000   XZ=              0.0000   YZ=              0.0000
 Traceless Quadrupole moment (field-independent basis, Debye-Ang):
   XX=              1.4715   YY=              1.4715   ZZ=             -2.9431
   XY=              0.0000   XZ=              0.0000   YZ=              0.0000
 Octapole moment (field-independent basis, Debye-Ang**2):
  XXX=             -0.0000  YYY=             -0.0000  ZZZ=              0.0000  XYY=             -0.0000
  XXY=             -0.0000  XXZ=              0.0000  XZZ=             -0.0000  YZZ=             -0.0000
  YYZ=              0.0000  XYZ=             -0.0000
 Hexadecapole moment (field-independent basis, Debye-Ang**3):
 XXXX=            -10.5714 YYYY=            -10.5714 ZZZZ=           -105.0243 XXXY=              0.0000
 XXXZ=              0.0000 YYYX=              0.0000 YYYZ=              0.0000 ZZZX=              0.0000
 ZZZY=              0.0000 XXYY=             -3.5238 XXZZ=            -18.9281 YYZZ=            -18.9281
 XXYZ=              0.0000 YYXZ=              0.0000 ZZXY=             -0.0000
 N-N= 5.644556891627D+01 E-N=-5.557248174904D+02  KE= 1.866577144961D+02
 Symmetry AG   KE= 1.007702592542D+02
 Symmetry B1G  KE= 9.724884807368D-34
 Symmetry B2G  KE= 4.881089177442D+00
 Symmetry B3G  KE= 4.881089177442D+00
 Symmetry AU   KE= 1.759179225070D-34
 Symmetry B1U  KE= 6.892134623046D+01
 Symmetry B2U  KE= 3.601965328304D+00
 Symmetry B3U  KE= 3.601965328304D+00
 Calling FoFJK, ICntrl=      2127 FMM=F ISym2X=1 I1Cent= 0 IOpClX= 0 NMat=1 NMatS=1 NMatT=0.
 ***** Axes restored to original set *****
 -------------------------------------------------------------------
 Center     Atomic                   Forces (Hartrees/Bohr)
 Number     Number              X              Y              Z
 -------------------------------------------------------------------
      1        6           0.000000000    0.000000000   -0.000000000
      2        8          -0.000000000   -0.000000000   -0.059621879
      3        8          -0.000000000   -0.000000000    0.059621879
 -------------------------------------------------------------------
 Cartesian Forces:  Max     0.059621879 RMS     0.028106023

 GradGradGradGradGradGradGradGradGradGradGradGradGradGradGradGradGradGrad
 Berny optimization.
 FormGI is forming the generalized inverse of G from B-inverse, IUseBI=4.
 Internal  Forces:  Max     0.059621879 RMS     0.042159035
 Search for a local minimum.
 Step number   1 out of a maximum of   20
 All quantities printed in internal units (Hartrees-Bohrs-Radians)
 Mixed Optimization -- RFO/linear search
 Second derivative matrix not updated -- first step.
 The second derivative matrix:
                          R1        R2        A1        A2
           R1           1.04823
           R2           0.00000   1.04823
           A1           0.00000   0.00000   0.04337
           A2           0.00000   0.00000   0.00000   0.04337
 ITU=  0
     Eigenvalues ---    0.04337   0.04337   1.04823   1.04823
 RFO step:  Lambda=-6.73909257D-03 EMin= 4.33739689D-02
 Linear search not attempted -- first point.
 Iteration  1 RMS(Cart)=  0.03996232 RMS(Int)=  0.00000000
 Iteration  2 RMS(Cart)=  0.00000000 RMS(Int)=  0.00000000
 ClnCor:  largest displacement from symmetrization is 1.94D-13 for atom     1.
 Variable       Old X    -DE/DX   Delta X   Delta X   Delta X     New X
                                 (Linear)    (Quad)   (Total)
    R1        2.26767  -0.05962   0.00000  -0.05652  -0.05652   2.21116
    R2        2.26767  -0.05962   0.00000  -0.05652  -0.05652   2.21116
    A1        3.14159   0.00000   0.00000   0.00000   0.00000   3.14159
    A2        3.14159  -0.00000   0.00000  -0.00000   0.00000   3.14159
         Item               Value     Threshold  Converged?
 Maximum Force            0.059622     0.000450     NO 
 RMS     Force            0.042159     0.000300     NO 
 Maximum Displacement     0.056515     0.001800     NO 
 RMS     Displacement     0.039962     0.001200     NO 
 Predicted change in Energy=-3.391070D-03
 GradGradGradGradGradGradGradGradGradGradGradGradGradGradGradGradGradGrad

                          Input orientation:                          
 ---------------------------------------------------------------------
 Center     Atomic      Atomic             Coordinates (Angstroms)
 Number     Number       Type             X           Y           Z
 ---------------------------------------------------------------------
      1          6           0        0.000000    0.000000    0.000000
      2          8           0        0.000000    0.000000    1.170093
      3          8           0        0.000000    0.000000   -1.170093
 ---------------------------------------------------------------------
                    Distance matrix (angstroms):
                    1          2          3
     1  C    0.000000
     2  O    1.170093   0.000000
     3  O    1.170093   2.340187   0.000000
 Stoichiometry    CO2
 Framework group  D*H[O(C),C*(O.O)]
 Deg. of freedom     1
 Full point group                 D*H     NOp   8
 Largest Abelian subgroup         D2H     NOp   8
 Largest concise Abelian subgroup C2      NOp   2
                         Standard orientation:                         
 ---------------------------------------------------------------------
 Center     Atomic      Atomic             Coordinates (Angstroms)
 Number     Number       Type             X           Y           Z
 ---------------------------------------------------------------------
      1          6           0        0.000000    0.000000    0.000000
      2          8           0        0.000000    0.000000    1.170093
      3          8           0        0.000000    0.000000   -1.170093
 ---------------------------------------------------------------------
 Rotational constants (GHZ):      0.0000000     11.5388945     11.5388945
 Standard basis: 6-31G(d) (6D, 7F)
 There are    14 symmetry adapted cartesian basis functions of AG  symmetry.
 There are     2 symmetry adapted cartesian basis functions of B1G symmetry.
 There are     4 symmetry adapted cartesian basis functions of B2G symmetry.
 There are     4 symmetry adapted cartesian basis functions of B3G symmetry.
 There are     1 symmetry adapted cartesian basis functions of AU  symmetry.
 There are    10 symmetry adapted cartesian basis functions of B1U symmetry.
 There are     5 symmetry adapted cartesian basis functions of B2U symmetry.
 There are     5 symmetry adapted cartesian basis functions of B3U symmetry.
 There are    14 symmetry adapted basis functions of AG  symmetry.
 There are     2 symmetry adapted basis functions of B1G symmetry.
 There are     4 symmetry adapted basis functions of B2G symmetry.
 There are     4 symmetry adapted basis functions of B3G symmetry.
 There are     1 symmetry adapted basis functions of AU  symmetry.
 There are    10 symmetry adapted basis functions of B1U symmetry.
 There are     5 symmetry adapted basis functions of B2U symmetry.
 There are     5 symmetry adapted basis functions of B3U symmetry.
    45 basis functions,    84 primitive gaussians,    45 cartesian basis functions
    11 alpha electrons       11 beta electrons
       nuclear repulsion energy        57.8882691545 Hartrees.
 NAtoms=    3 NActive=    3 NUniq=    2 SFac= 2.25D+00 NAtFMM=   60 NAOKFM=F Big=F
 Integral buffers will be    131072 words long.
 Raffenetti 2 integral format.
 Two-electron integral symmetry is turned on.
 One-electron integrals computed using PRISM.
 NBasis=    45 RedAO= T EigKep=  4.48D-03  NBF=    14     2     4     4     1    10     5     5
 NBsUse=    45 1.00D-06 EigRej= -1.00D+00 NBFU=    14     2     4     4     1    10     5     5
 Initial guess from the checkpoint file:  "/scratch/webmodemo/webmo-4350/333022/Gau-16848.chk"
 B after Tr=    -0.000000    0.000000    0.000000
         Rot=    1.000000    0.000000    0.000000    0.000000 Ang=   0.00 deg.
 Initial guess orbital symmetries:
       Occupied  (SGG) (SGU) (SGG) (SGG) (SGU) (SGG) (SGU) (PIU)
                 (PIU) (PIG) (PIG)
       Virtual   (SGG) (SGG) (SGG) (SGG) (DLTG) (SGG) (SGG) (DLTG)
                 (SGG) (SGG) (DLTG) (DLTG) (PIG) (PIG) (PIG) (PIG)
                 (PIG) (PIG) (DLTU) (SGU) (SGU) (SGU) (SGU) (DLTU)
                 (SGU) (SGU) (PIU) (PIU) (PIU) (PIU) (PIU) (PIU)
                 (PIU) (PIU)
 ExpMin= 1.69D-01 ExpMax= 5.48D+03 ExpMxC= 8.25D+02 IAcc=1 IRadAn=         1 AccDes= 0.00D+00
 Harris functional with IExCor=  402 and IRadAn=       1 diagonalized for initial guess.
 HarFok:  IExCor=  402 AccDes= 0.00D+00 IRadAn=         1 IDoV= 1 UseB2=F ITyADJ=14
 ICtDFT=  3500011 ScaDFX=  1.000000  1.000000  1.000000  1.000000
 FoFCou: FMM=F IPFlag=           0 FMFlag=      100000 FMFlg1=           0
         NFxFlg=           0 DoJE=T BraDBF=F KetDBF=T FulRan=T
         wScrn=  0.000000 ICntrl=     500 IOpCl=  0 I1Cent=   200000004 NGrid=           0
         NMat0=    1 NMatS0=      1 NMatT0=    0 NMatD0=    1 NMtDS0=    0 NMtDT0=    0
 Petite list used in FoFCou.
 Keep R1 ints in memory in symmetry-blocked form, NReq=1431462.
 Requested convergence on RMS density matrix=1.00D-08 within 128 cycles.
 Requested convergence on MAX density matrix=1.00D-06.
 Requested convergence on             energy=1.00D-06.
 No special actions if energy rises.
 Integral accuracy reduced to 1.0D-05 until final iterations.
 Initial convergence to 1.0D-05 achieved.  Increase integral accuracy.
 SCF Done:  E(RB3LYP) =  -188.580936738     A.U. after    9 cycles
            NFock=  9  Conv=0.69D-08     -V/T= 2.0090
 Calling FoFJK, ICntrl=      2127 FMM=F ISym2X=1 I1Cent= 0 IOpClX= 0 NMat=1 NMatS=1 NMatT=0.
 ***** Axes restored to original set *****
 -------------------------------------------------------------------
 Center     Atomic                   Forces (Hartrees/Bohr)
 Number     Number              X              Y              Z
 -------------------------------------------------------------------
      1        6           0.000000000    0.000000000    0.000000000
      2        8          -0.000000000   -0.000000000   -0.001988488
      3        8          -0.000000000   -0.000000000    0.001988488
 -------------------------------------------------------------------
 Cartesian Forces:  Max     0.001988488 RMS     0.000937382

 GradGradGradGradGradGradGradGradGradGradGradGradGradGradGradGradGradGrad
 Berny optimization.
 Using GEDIIS/GDIIS optimizer.
 Internal  Forces:  Max     0.001988488 RMS     0.001406073
 Search for a local minimum.
 Step number   2 out of a maximum of   20
 All quantities printed in internal units (Hartrees-Bohrs-Radians)
 Mixed Optimization -- RFO/linear search
 Update second derivatives using D2CorX and points    1    2
 DE= -3.60D-03 DEPred=-3.39D-03 R= 1.06D+00
 TightC=F SS=  1.41D+00  RLast= 7.99D-02 DXNew= 5.0454D-01 2.3977D-01
 Trust test= 1.06D+00 RLast= 7.99D-02 DXMaxT set to 3.00D-01
 The second derivative matrix:
                          R1        R2        A1        A2
           R1           1.03401
           R2          -0.01422   1.03401
           A1           0.00000   0.00000   0.04337
           A2          -0.00000  -0.00000  -0.00000   0.04337
 ITU=  1  0
 Use linear search instead of GDIIS.
     Eigenvalues ---    0.04337   0.04337   1.01978   1.04823
 RFO step:  Lambda= 0.00000000D+00 EMin= 4.33739689D-02
 Quartic linear search produced a step of  0.03101.
 Iteration  1 RMS(Cart)=  0.00123941 RMS(Int)=  0.00000000
 Iteration  2 RMS(Cart)=  0.00000000 RMS(Int)=  0.00000000
 ClnCor:  largest displacement from symmetrization is 2.30D-13 for atom     1.
 Variable       Old X    -DE/DX   Delta X   Delta X   Delta X     New X
                                 (Linear)    (Quad)   (Total)
    R1        2.21116  -0.00199  -0.00175  -0.00000  -0.00175   2.20940
    R2        2.21116  -0.00199  -0.00175   0.00000  -0.00175   2.20940
    A1        3.14159   0.00000   0.00000   0.00000   0.00000   3.14159
    A2        3.14159  -0.00000   0.00000  -0.00000   0.00000   3.14159
         Item               Value     Threshold  Converged?
 Maximum Force            0.001988     0.000450     NO 
 RMS     Force            0.001406     0.000300     NO 
 Maximum Displacement     0.001753     0.001800     YES
 RMS     Displacement     0.001239     0.001200     NO 
 Predicted change in Energy=-3.837744D-06
 GradGradGradGradGradGradGradGradGradGradGradGradGradGradGradGradGradGrad

                          Input orientation:                          
 ---------------------------------------------------------------------
 Center     Atomic      Atomic             Coordinates (Angstroms)
 Number     Number       Type             X           Y           Z
 ---------------------------------------------------------------------
      1          6           0        0.000000    0.000000   -0.000000
      2          8           0        0.000000    0.000000    1.169166
      3          8           0        0.000000    0.000000   -1.169166
 ---------------------------------------------------------------------
                    Distance matrix (angstroms):
                    1          2          3
     1  C    0.000000
     2  O    1.169166   0.000000
     3  O    1.169166   2.338332   0.000000
 Stoichiometry    CO2
 Framework group  D*H[O(C),C*(O.O)]
 Deg. of freedom     1
 Full point group                 D*H     NOp   8
 Largest Abelian subgroup         D2H     NOp   8
 Largest concise Abelian subgroup C2      NOp   2
                         Standard orientation:                         
 ---------------------------------------------------------------------
 Center     Atomic      Atomic             Coordinates (Angstroms)
 Number     Number       Type             X           Y           Z
 ---------------------------------------------------------------------
      1          6           0        0.000000    0.000000    0.000000
      2          8           0        0.000000    0.000000    1.169166
      3          8           0        0.000000    0.000000   -1.169166
 ---------------------------------------------------------------------
 Rotational constants (GHZ):      0.0000000     11.5572100     11.5572100
 Standard basis: 6-31G(d) (6D, 7F)
 There are    14 symmetry adapted cartesian basis functions of AG  symmetry.
 There are     2 symmetry adapted cartesian basis functions of B1G symmetry.
 There are     4 symmetry adapted cartesian basis functions of B2G symmetry.
 There are     4 symmetry adapted cartesian basis functions of B3G symmetry.
 There are     1 symmetry adapted cartesian basis functions of AU  symmetry.
 There are    10 symmetry adapted cartesian basis functions of B1U symmetry.
 There are     5 symmetry adapted cartesian basis functions of B2U symmetry.
 There are     5 symmetry adapted cartesian basis functions of B3U symmetry.
 There are    14 symmetry adapted basis functions of AG  symmetry.
 There are     2 symmetry adapted basis functions of B1G symmetry.
 There are     4 symmetry adapted basis functions of B2G symmetry.
 There are     4 symmetry adapted basis functions of B3G symmetry.
 There are     1 symmetry adapted basis functions of AU  symmetry.
 There are    10 symmetry adapted basis functions of B1U symmetry.
 There are     5 symmetry adapted basis functions of B2U symmetry.
 There are     5 symmetry adapted basis functions of B3U symmetry.
    45 basis functions,    84 primitive gaussians,    45 cartesian basis functions
    11 alpha electrons       11 beta electrons
       nuclear repulsion energy        57.9341936337 Hartrees.
 NAtoms=    3 NActive=    3 NUniq=    2 SFac= 2.25D+00 NAtFMM=   60 NAOKFM=F Big=F
 Integral buffers will be    131072 words long.
 Raffenetti 2 integral format.
 Two-electron integral symmetry is turned on.
 One-electron integrals computed using PRISM.
 NBasis=    45 RedAO= T EigKep=  4.47D-03  NBF=    14     2     4     4     1    10     5     5
 NBsUse=    45 1.00D-06 EigRej= -1.00D+00 NBFU=    14     2     4     4     1    10     5     5
 Initial guess from the checkpoint file:  "/scratch/webmodemo/webmo-4350/333022/Gau-16848.chk"
 B after Tr=    -0.000000    0.000000    0.000000
         Rot=    1.000000    0.000000    0.000000    0.000000 Ang=   0.00 deg.
 Initial guess orbital symmetries:
       Occupied  (SGG) (SGU) (SGG) (SGG) (SGU) (SGG) (SGU) (PIU)
                 (PIU) (PIG) (PIG)
       Virtual   (SGG) (SGG) (SGG) (SGG) (DLTG) (SGG) (SGG) (DLTG)
                 (SGG) (SGG) (DLTG) (DLTG) (PIG) (PIG) (PIG) (PIG)
                 (PIG) (PIG) (DLTU) (SGU) (SGU) (SGU) (SGU) (DLTU)
                 (SGU) (SGU) (PIU) (PIU) (PIU) (PIU) (PIU) (PIU)
                 (PIU) (PIU)
 Keep R1 ints in memory in symmetry-blocked form, NReq=1431462.
 Requested convergence on RMS density matrix=1.00D-08 within 128 cycles.
 Requested convergence on MAX density matrix=1.00D-06.
 Requested convergence on             energy=1.00D-06.
 No special actions if energy rises.
 SCF Done:  E(RB3LYP) =  -188.580940224     A.U. after    6 cycles
            NFock=  6  Conv=0.60D-08     -V/T= 2.0089
 Calling FoFJK, ICntrl=      2127 FMM=F ISym2X=1 I1Cent= 0 IOpClX= 0 NMat=1 NMatS=1 NMatT=0.
 ***** Axes restored to original set *****
 -------------------------------------------------------------------
 Center     Atomic                   Forces (Hartrees/Bohr)
 Number     Number              X              Y              Z
 -------------------------------------------------------------------
      1        6           0.000000000    0.000000000   -0.000000000
      2        8          -0.000000000   -0.000000000    0.000002286
      3        8          -0.000000000   -0.000000000   -0.000002286
 -------------------------------------------------------------------
 Cartesian Forces:  Max     0.000002286 RMS     0.000001078

 GradGradGradGradGradGradGradGradGradGradGradGradGradGradGradGradGradGrad
 Berny optimization.
 Using GEDIIS/GDIIS optimizer.
 Internal  Forces:  Max     0.000002286 RMS     0.000001616
 Search for a local minimum.
 Step number   3 out of a maximum of   20
 All quantities printed in internal units (Hartrees-Bohrs-Radians)
 Mixed Optimization -- En-DIIS/RFO-DIIS
 Update second derivatives using D2CorX and points    1    2    3
 DE= -3.49D-06 DEPred=-3.84D-06 R= 9.08D-01
 TightC=F SS=  1.41D+00  RLast= 2.48D-03 DXNew= 5.0454D-01 7.4364D-03
 Trust test= 9.08D-01 RLast= 2.48D-03 DXMaxT set to 3.00D-01
 The second derivative matrix:
                          R1        R2        A1        A2
           R1           1.09200
           R2           0.04377   1.09200
           A1           0.00000   0.00000   0.04337
           A2          -0.00000  -0.00000  -0.00000   0.04337
 ITU=  1  1  0
 Use linear search instead of GDIIS.
     Eigenvalues ---    0.04337   0.04337   1.04823   1.13578
 RFO step:  Lambda= 0.00000000D+00 EMin= 4.33739689D-02
 Quartic linear search produced a step of -0.00114.
 Iteration  1 RMS(Cart)=  0.00000142 RMS(Int)=  0.00000000
 Iteration  2 RMS(Cart)=  0.00000000 RMS(Int)=  0.00000001
 ClnCor:  largest displacement from symmetrization is 2.30D-13 for atom     1.
 Variable       Old X    -DE/DX   Delta X   Delta X   Delta X     New X
                                 (Linear)    (Quad)   (Total)
    R1        2.20940   0.00000   0.00000   0.00000   0.00000   2.20941
    R2        2.20940   0.00000   0.00000  -0.00000   0.00000   2.20941
    A1        3.14159   0.00000   0.00000   0.00000   0.00000   3.14159
    A2        3.14159  -0.00000   0.00000  -0.00000   0.00000   3.14159
         Item               Value     Threshold  Converged?
 Maximum Force            0.000002     0.000450     YES
 RMS     Force            0.000002     0.000300     YES
 Maximum Displacement     0.000002     0.001800     YES
 RMS     Displacement     0.000001     0.001200     YES
 Predicted change in Energy=-4.600391D-12
 Optimization completed.
    -- Stationary point found.
                           ----------------------------
                           !   Optimized Parameters   !
                           ! (Angstroms and Degrees)  !
 --------------------------                            --------------------------
 ! Name  Definition              Value          Derivative Info.                !
 --------------------------------------------------------------------------------
 ! R1    R(1,2)                  1.1692         -DE/DX =    0.0                 !
 ! R2    R(1,3)                  1.1692         -DE/DX =    0.0                 !
 ! A1    L(2,1,3,-1,-1)        180.0            -DE/DX =    0.0                 !
 ! A2    L(2,1,3,-2,-2)        180.0            -DE/DX =    0.0                 !
 --------------------------------------------------------------------------------
 GradGradGradGradGradGradGradGradGradGradGradGradGradGradGradGradGradGrad

                          Input orientation:                          
 ---------------------------------------------------------------------
 Center     Atomic      Atomic             Coordinates (Angstroms)
 Number     Number       Type             X           Y           Z
 ---------------------------------------------------------------------
      1          6           0        0.000000    0.000000    0.000000
      2          8           0        0.000000    0.000000    1.169166
      3          8           0        0.000000    0.000000   -1.169166
 ---------------------------------------------------------------------
                    Distance matrix (angstroms):
                    1          2          3
     1  C    0.000000
     2  O    1.169166   0.000000
     3  O    1.169166   2.338332   0.000000
 Stoichiometry    CO2
 Framework group  D*H[O(C),C*(O.O)]
 Deg. of freedom     1
 Full point group                 D*H     NOp   8
 Largest Abelian subgroup         D2H     NOp   8
 Largest concise Abelian subgroup C2      NOp   2
                         Standard orientation:                         
 ---------------------------------------------------------------------
 Center     Atomic      Atomic             Coordinates (Angstroms)
 Number     Number       Type             X           Y           Z
 ---------------------------------------------------------------------
      1          6           0        0.000000    0.000000    0.000000
      2          8           0        0.000000    0.000000    1.169166
      3          8           0        0.000000    0.000000   -1.169166
 ---------------------------------------------------------------------
 Rotational constants (GHZ):      0.0000000     11.5572100     11.5572100

 **********************************************************************

            Population analysis using the SCF density.

 **********************************************************************

 Orbital symmetries:
       Occupied  (SGG) (SGU) (SGG) (SGG) (SGU) (SGG) (SGU) (PIU)
                 (PIU) (PIG) (PIG)
       Virtual   (PIU) (PIU) (SGG) (SGU) (PIU) (PIU) (SGG) (SGU)
                 (SGG) (PIG) (PIG) (SGU) (PIU) (PIU) (SGG) (DLTG)
                 (DLTG) (PIG) (PIG) (DLTU) (DLTU) (SGU) (DLTG)
                 (DLTG) (PIU) (PIU) (SGG) (SGU) (PIG) (PIG) (SGG)
                 (SGG) (SGG) (SGU)
 The electronic state is 1-SGG.
 Alpha  occ. eigenvalues --  -19.23659 -19.23659 -10.38530  -1.16098  -1.11964
 Alpha  occ. eigenvalues --   -0.56234  -0.51655  -0.51277  -0.51277  -0.36997
 Alpha  occ. eigenvalues --   -0.36997
 Alpha virt. eigenvalues --    0.02991   0.02991   0.08433   0.36578   0.47260
 Alpha virt. eigenvalues --    0.47260   0.58434   0.73524   0.78154   0.87419
 Alpha virt. eigenvalues --    0.87419   1.03773   1.04165   1.04165   1.37741
 Alpha virt. eigenvalues --    1.39388   1.39388   1.40640   1.40640   1.72628
 Alpha virt. eigenvalues --    1.72628   1.83356   2.02760   2.02761   2.12105
 Alpha virt. eigenvalues --    2.12105   2.72072   2.91522   2.95400   2.95400
 Alpha virt. eigenvalues --    3.04930   3.74168   4.38892   4.45002
          Condensed to atoms (all electrons):
               1          2          3
     1  C    4.105517   0.587495   0.587495
     2  O    0.587495   7.793895  -0.021644
     3  O    0.587495  -0.021644   7.793895
 Mulliken charges:
               1
     1  C    0.719492
     2  O   -0.359746
     3  O   -0.359746
 Sum of Mulliken charges =  -0.00000
 Mulliken charges with hydrogens summed into heavy atoms:
               1
     1  C    0.719492
     2  O   -0.359746
     3  O   -0.359746
 Electronic spatial extent (au):  <R**2>=            113.6535
 Charge=             -0.0000 electrons
 Dipole moment (field-independent basis, Debye):
    X=             -0.0000    Y=             -0.0000    Z=              0.0000  Tot=              0.0000
 Quadrupole moment (field-independent basis, Debye-Ang):
   XX=            -14.4508   YY=            -14.4508   ZZ=            -18.9144
   XY=              0.0000   XZ=              0.0000   YZ=              0.0000
 Traceless Quadrupole moment (field-independent basis, Debye-Ang):
   XX=              1.4879   YY=              1.4879   ZZ=             -2.9757
   XY=              0.0000   XZ=              0.0000   YZ=              0.0000
 Octapole moment (field-independent basis, Debye-Ang**2):
  XXX=             -0.0000  YYY=              0.0000  ZZZ=              0.0000  XYY=             -0.0000
  XXY=             -0.0000  XXZ=             -0.0000  XZZ=             -0.0000  YZZ=              0.0000
  YYZ=              0.0000  XYZ=             -0.0000
 Hexadecapole moment (field-independent basis, Debye-Ang**3):
 XXXX=            -10.3564 YYYY=            -10.3564 ZZZZ=           -100.4953 XXXY=              0.0000
 XXXZ=              0.0000 YYYX=              0.0000 YYYZ=              0.0000 ZZZX=              0.0000
 ZZZY=              0.0000 XXYY=             -3.4521 XXZZ=            -18.0714 YYZZ=            -18.0714
 XXYZ=              0.0000 YYXZ=              0.0000 ZZXY=             -0.0000
 N-N= 5.793419363372D+01 E-N=-5.588903745675D+02  KE= 1.869160648173D+02
 Symmetry AG   KE= 1.008894004266D+02
 Symmetry B1G  KE= 1.111997084763D-33
 Symmetry B2G  KE= 4.896519735284D+00
 Symmetry B3G  KE= 4.896519735284D+00
 Symmetry AU   KE= 1.943111556287D-34
 Symmetry B1U  KE= 6.901033186079D+01
 Symmetry B2U  KE= 3.611646529697D+00
 Symmetry B3U  KE= 3.611646529697D+00
 B after Tr=    -0.000000    0.000000    0.000000
         Rot=    1.000000    0.000000    0.000000    0.000000 Ang=   0.00 deg.
 Final structure in terms of initial Z-matrix:
 C
 O,1,B1
 O,1,B2,2,A1
      Variables:
 B1=1.16916588
 B2=1.16916588
 A1=180.
 1\1\GINC-BUCHNER\FOpt\RB3LYP\6-31G(d)\C1O2\WEBMODEMO\13-Oct-2017\0\\#N
  B3LYP/6-31G(d) OPT Geom=Connectivity\\CO2\\0,1\C,0.0000000069,0.,0.\O
 ,0.0000000069,0.,1.1691658838\O,0.0000000069,0.,-1.1691658838\\Version
 =EM64L-G09RevE.01\State=1-SGG\HF=-188.5809402\RMSD=6.029e-09\RMSF=1.07
 8e-06\Dipole=0.,0.,0.\Quadrupole=1.1061908,1.1061908,-2.2123815,0.,0.,
 0.\PG=D*H [O(C1),C*(O1.O1)]\\@


 BULLDOZER: SOMEONE WHO SLEEPS THROUGH SPEECHES.
 Job cpu time:       0 days  0 hours  0 minutes  3.8 seconds.
 File lengths (MBytes):  RWF=      5 Int=      0 D2E=      0 Chk=      1 Scr=      1
 Normal termination of Gaussian 09 at Fri Oct 13 15:39:33 2017.
