 Entering Gaussian System, Link 0=/usr/local/g09/g09
 Initial command:
 /usr/local/g09/l1.exe "/scratch/webmodemo/webmo-4350/333029/Gau-17452.inp" -scrdir="/scratch/webmodemo/webmo-4350/333029/"
 Entering Link 1 = /usr/local/g09/l1.exe PID=     17453.
  
 Copyright (c) 1988,1990,1992,1993,1995,1998,2003,2009,2015,
            Gaussian, Inc.  All Rights Reserved.
  
 This is part of the Gaussian(R) 09 program.  It is based on
 the Gaussian(R) 03 system (copyright 2003, Gaussian, Inc.),
 the Gaussian(R) 98 system (copyright 1998, Gaussian, Inc.),
 the Gaussian(R) 94 system (copyright 1995, Gaussian, Inc.),
 the Gaussian 92(TM) system (copyright 1992, Gaussian, Inc.),
 the Gaussian 90(TM) system (copyright 1990, Gaussian, Inc.),
 the Gaussian 88(TM) system (copyright 1988, Gaussian, Inc.),
 the Gaussian 86(TM) system (copyright 1986, Carnegie Mellon
 University), and the Gaussian 82(TM) system (copyright 1983,
 Carnegie Mellon University). Gaussian is a federally registered
 trademark of Gaussian, Inc.
  
 This software contains proprietary and confidential information,
 including trade secrets, belonging to Gaussian, Inc.
  
 This software is provided under written license and may be
 used, copied, transmitted, or stored only in accord with that
 written license.
  
 The following legend is applicable only to US Government
 contracts under FAR:
  
                    RESTRICTED RIGHTS LEGEND
  
 Use, reproduction and disclosure by the US Government is
 subject to restrictions as set forth in subparagraphs (a)
 and (c) of the Commercial Computer Software - Restricted
 Rights clause in FAR 52.227-19.
  
 Gaussian, Inc.
 340 Quinnipiac St., Bldg. 40, Wallingford CT 06492
  
  
 ---------------------------------------------------------------
 Warning -- This program may not be used in any manner that
 competes with the business of Gaussian, Inc. or will provide
 assistance to any competitor of Gaussian, Inc.  The licensee
 of this program is prohibited from giving any competitor of
 Gaussian, Inc. access to this program.  By using this program,
 the user acknowledges that Gaussian, Inc. is engaged in the
 business of creating and licensing software in the field of
 computational chemistry and represents and warrants to the
 licensee that it is not a competitor of Gaussian, Inc. and that
 it will not use this program in any manner prohibited above.
 ---------------------------------------------------------------
  

 Cite this work as:
 Gaussian 09, Revision E.01,
 M. J. Frisch, G. W. Trucks, H. B. Schlegel, G. E. Scuseria, 
 M. A. Robb, J. R. Cheeseman, G. Scalmani, V. Barone, B. Mennucci, 
 G. A. Petersson, H. Nakatsuji, M. Caricato, X. Li, H. P. Hratchian, 
 A. F. Izmaylov, J. Bloino, G. Zheng, J. L. Sonnenberg, M. Hada, 
 M. Ehara, K. Toyota, R. Fukuda, J. Hasegawa, M. Ishida, T. Nakajima, 
 Y. Honda, O. Kitao, H. Nakai, T. Vreven, J. A. Montgomery, Jr., 
 J. E. Peralta, F. Ogliaro, M. Bearpark, J. J. Heyd, E. Brothers, 
 K. N. Kudin, V. N. Staroverov, T. Keith, R. Kobayashi, J. Normand, 
 K. Raghavachari, A. Rendell, J. C. Burant, S. S. Iyengar, J. Tomasi, 
 M. Cossi, N. Rega, J. M. Millam, M. Klene, J. E. Knox, J. B. Cross, 
 V. Bakken, C. Adamo, J. Jaramillo, R. Gomperts, R. E. Stratmann, 
 O. Yazyev, A. J. Austin, R. Cammi, C. Pomelli, J. W. Ochterski, 
 R. L. Martin, K. Morokuma, V. G. Zakrzewski, G. A. Voth, 
 P. Salvador, J. J. Dannenberg, S. Dapprich, A. D. Daniels, 
 O. Farkas, J. B. Foresman, J. V. Ortiz, J. Cioslowski, 
 and D. J. Fox, Gaussian, Inc., Wallingford CT, 2013.
 
 ******************************************
 Gaussian 09:  EM64L-G09RevE.01 30-Nov-2015
                13-Oct-2017 
 ******************************************
 ---------------------------------------
 #N B3LYP/6-31G(d) OPT Geom=Connectivity
 ---------------------------------------
 1/14=-1,18=20,19=15,26=3,38=1,57=2/1,3;
 2/9=110,12=2,17=6,18=5,40=1/2;
 3/5=1,6=6,7=1,11=2,16=1,25=1,30=1,71=1,74=-5/1,2,3;
 4//1;
 5/5=2,38=5/2;
 6/7=2,8=2,9=2,10=2,28=1/1;
 7//1,2,3,16;
 1/14=-1,18=20,19=15,26=3/3(2);
 2/9=110/2;
 99//99;
 2/9=110/2;
 3/5=1,6=6,7=1,11=2,16=1,25=1,30=1,71=1,74=-5/1,2,3;
 4/5=5,16=3,69=1/1;
 5/5=2,38=5/2;
 7//1,2,3,16;
 1/14=-1,18=20,19=15,26=3/3(-5);
 2/9=110/2;
 6/7=2,8=2,9=2,10=2,19=2,28=1/1;
 99/9=1/99;
 ---
 O2N
 ---
 Symbolic Z-matrix:
 Charge =  0 Multiplicity = 2
 N
 O                    1    B1
 O                    1    B2       2    A1
       Variables:
  B1                    1.2                      
  B2                    1.2                      
  A1                  119.04619                  
 

 GradGradGradGradGradGradGradGradGradGradGradGradGradGradGradGradGradGrad
 Berny optimization.
 Initialization pass.
                           ----------------------------
                           !    Initial Parameters    !
                           ! (Angstroms and Degrees)  !
 --------------------------                            --------------------------
 ! Name  Definition              Value          Derivative Info.                !
 --------------------------------------------------------------------------------
 ! R1    R(1,2)                  1.2            estimate D2E/DX2                !
 ! R2    R(1,3)                  1.2            estimate D2E/DX2                !
 ! A1    A(2,1,3)              119.0462         estimate D2E/DX2                !
 --------------------------------------------------------------------------------
 Trust Radius=3.00D-01 FncErr=1.00D-07 GrdErr=1.00D-06
 Number of steps in this run=     20 maximum allowed number of steps=    100.
 GradGradGradGradGradGradGradGradGradGradGradGradGradGradGradGradGradGrad

                          Input orientation:                          
 ---------------------------------------------------------------------
 Center     Atomic      Atomic             Coordinates (Angstroms)
 Number     Number       Type             X           Y           Z
 ---------------------------------------------------------------------
      1          7           0        0.000000    0.000000    0.000000
      2          8           0        0.000000    0.000000    1.200000
      3          8           0        1.049074    0.000000   -0.582617
 ---------------------------------------------------------------------
                    Distance matrix (angstroms):
                    1          2          3
     1  N    0.000000
     2  O    1.200000   0.000000
     3  O    1.200000   2.068401   0.000000
 Stoichiometry    NO2(2)
 Framework group  C2V[C2(N),SGV(O2)]
 Deg. of freedom     2
 Full point group                 C2V     NOp   4
 Largest Abelian subgroup         C2V     NOp   4
 Largest concise Abelian subgroup C2      NOp   2
                         Standard orientation:                         
 ---------------------------------------------------------------------
 Center     Atomic      Atomic             Coordinates (Angstroms)
 Number     Number       Type             X           Y           Z
 ---------------------------------------------------------------------
      1          7           0        0.000000   -0.000000    0.423394
      2          8           0       -0.000000    1.034200   -0.185235
      3          8           0       -0.000000   -1.034200   -0.185235
 ---------------------------------------------------------------------
 Rotational constants (GHZ):    140.0770994     14.7705226     13.3615998
 Standard basis: 6-31G(d) (6D, 7F)
 There are    19 symmetry adapted cartesian basis functions of A1  symmetry.
 There are     5 symmetry adapted cartesian basis functions of A2  symmetry.
 There are     7 symmetry adapted cartesian basis functions of B1  symmetry.
 There are    14 symmetry adapted cartesian basis functions of B2  symmetry.
 There are    19 symmetry adapted basis functions of A1  symmetry.
 There are     5 symmetry adapted basis functions of A2  symmetry.
 There are     7 symmetry adapted basis functions of B1  symmetry.
 There are    14 symmetry adapted basis functions of B2  symmetry.
    45 basis functions,    84 primitive gaussians,    45 cartesian basis functions
    12 alpha electrons       11 beta electrons
       nuclear repulsion energy        65.7635567397 Hartrees.
 NAtoms=    3 NActive=    3 NUniq=    2 SFac= 2.25D+00 NAtFMM=   60 NAOKFM=F Big=F
 Integral buffers will be    131072 words long.
 Raffenetti 2 integral format.
 Two-electron integral symmetry is turned on.
 One-electron integrals computed using PRISM.
 NBasis=    45 RedAO= T EigKep=  5.85D-03  NBF=    19     5     7    14
 NBsUse=    45 1.00D-06 EigRej= -1.00D+00 NBFU=    19     5     7    14
 ExpMin= 2.12D-01 ExpMax= 5.48D+03 ExpMxC= 8.25D+02 IAcc=1 IRadAn=         1 AccDes= 0.00D+00
 Harris functional with IExCor=  402 and IRadAn=       1 diagonalized for initial guess.
 HarFok:  IExCor=  402 AccDes= 0.00D+00 IRadAn=         1 IDoV= 1 UseB2=F ITyADJ=14
 ICtDFT=  3500011 ScaDFX=  1.000000  1.000000  1.000000  1.000000
 FoFCou: FMM=F IPFlag=           0 FMFlag=      100000 FMFlg1=           0
         NFxFlg=           0 DoJE=T BraDBF=F KetDBF=T FulRan=T
         wScrn=  0.000000 ICntrl=     500 IOpCl=  0 I1Cent=   200000004 NGrid=           0
         NMat0=    1 NMatS0=      1 NMatT0=    0 NMatD0=    1 NMtDS0=    0 NMtDT0=    0
 Petite list used in FoFCou.
 Initial guess orbital symmetries:
 Alpha Orbitals:
       Occupied  (B2) (A1) (A1) (A1) (B2) (A1) (B2) (A1) (B1) (A2)
                 (B2) (A1)
       Virtual   (B1) (A1) (B2) (A1) (B2) (A1) (B1) (B2) (A1) (A1)
                 (A2) (B1) (B2) (A1) (B2) (A2) (B1) (A1) (B2) (A2)
                 (B1) (A1) (B2) (A1) (B1) (B2) (A2) (A1) (B2) (A1)
                 (A1) (B2) (A1)
 Beta  Orbitals:
       Occupied  (B2) (A1) (A1) (A1) (B2) (A1) (B2) (A1) (B1) (A2)
                 (B2)
       Virtual   (A1) (B1) (A1) (B2) (A1) (B2) (A1) (B1) (B2) (A1)
                 (A1) (A2) (B1) (B2) (A1) (B2) (A2) (B1) (A1) (B2)
                 (A2) (B1) (A1) (B2) (A1) (B1) (B2) (A2) (A1) (B2)
                 (A1) (A1) (B2) (A1)
 The electronic state of the initial guess is 2-A1.
 Initial guess <Sx>= 0.0000 <Sy>= 0.0000 <Sz>= 0.5000 <S**2>= 0.7500 S= 0.5000
 Keep R1 and R2 ints in memory in symmetry-blocked form, NReq=1429298.
 Requested convergence on RMS density matrix=1.00D-08 within 128 cycles.
 Requested convergence on MAX density matrix=1.00D-06.
 Requested convergence on             energy=1.00D-06.
 No special actions if energy rises.
 Integral accuracy reduced to 1.0D-05 until final iterations.
 Initial convergence to 1.0D-05 achieved.  Increase integral accuracy.
 SCF Done:  E(UB3LYP) =  -205.057668778     A.U. after   13 cycles
            NFock= 13  Conv=0.90D-08     -V/T= 2.0078
 <Sx>= 0.0000 <Sy>= 0.0000 <Sz>= 0.5000 <S**2>= 0.7537 S= 0.5019
 <L.S>= 0.000000000000E+00
 Annihilation of the first spin contaminant:
 S**2 before annihilation     0.7537,   after     0.7500

 **********************************************************************

            Population analysis using the SCF density.

 **********************************************************************

 Orbital symmetries:
 Alpha Orbitals:
       Occupied  (B2) (A1) (A1) (A1) (B2) (A1) (A1) (B1) (B2) (A2)
                 (B2) (A1)
       Virtual   (B1) (A1) (B2) (A1) (B2) (A1) (B1) (B2) (A1) (A1)
                 (A2) (B1) (B2) (A1) (B2) (A2) (B1) (A1) (B2) (A2)
                 (B1) (A1) (B2) (A1) (B1) (B2) (A2) (A1) (B2) (A1)
                 (A1) (B2) (A1)
 Beta  Orbitals:
       Occupied  (B2) (A1) (A1) (A1) (B2) (A1) (B1) (B2) (A1) (A2)
                 (B2)
       Virtual   (A1) (B1) (A1) (B2) (A1) (B2) (A1) (B1) (A1) (B2)
                 (A1) (A2) (B1) (B2) (A1) (B2) (A2) (B1) (A1) (B2)
                 (A2) (B1) (A1) (B2) (A1) (B1) (B2) (A2) (A1) (B2)
                 (A1) (A1) (B2) (A1)
 The electronic state is 2-A1.
 Alpha  occ. eigenvalues --  -19.25648 -19.25646 -14.58691  -1.29707  -1.11715
 Alpha  occ. eigenvalues --   -0.68183  -0.57470  -0.56735  -0.56704  -0.36887
 Alpha  occ. eigenvalues --   -0.36001  -0.32156
 Alpha virt. eigenvalues --   -0.09172   0.27987   0.30941   0.56421   0.59173
 Alpha virt. eigenvalues --    0.59878   0.60881   0.80747   0.81189   0.84075
 Alpha virt. eigenvalues --    0.89323   0.91004   0.97853   1.18082   1.35329
 Alpha virt. eigenvalues --    1.37750   1.39900   1.45639   1.73164   1.76834
 Alpha virt. eigenvalues --    1.80090   1.80929   2.03619   2.21071   2.41421
 Alpha virt. eigenvalues --    2.53785   2.62493   2.64856   2.78016   2.88643
 Alpha virt. eigenvalues --    3.33261   3.60301   3.64445
  Beta  occ. eigenvalues --  -19.24738 -19.24735 -14.57773  -1.27942  -1.09399
  Beta  occ. eigenvalues --   -0.64506  -0.55739  -0.54187  -0.53471  -0.36039
  Beta  occ. eigenvalues --   -0.31837
  Beta virt. eigenvalues --   -0.18099  -0.07612   0.29306   0.33612   0.59378
  Beta virt. eigenvalues --    0.59679   0.60976   0.61567   0.81850   0.82031
  Beta virt. eigenvalues --    0.86636   0.89777   0.91696   1.00125   1.19654
  Beta virt. eigenvalues --    1.36303   1.38341   1.41675   1.48077   1.75270
  Beta virt. eigenvalues --    1.78061   1.82399   1.82523   2.05055   2.22713
  Beta virt. eigenvalues --    2.42622   2.56450   2.63529   2.67045   2.78887
  Beta virt. eigenvalues --    2.90536   3.35087   3.61614   3.66231
          Condensed to atoms (all electrons):
               1          2          3
     1  N    6.048855   0.260378   0.260378
     2  O    0.260378   8.090488  -0.135671
     3  O    0.260378  -0.135671   8.090488
          Atomic-Atomic Spin Densities.
               1          2          3
     1  N    0.608723  -0.118404  -0.118404
     2  O   -0.118404   0.405253   0.027193
     3  O   -0.118404   0.027193   0.405253
 Mulliken charges and spin densities:
               1          2
     1  N    0.430389   0.371916
     2  O   -0.215195   0.314042
     3  O   -0.215195   0.314042
 Sum of Mulliken charges =  -0.00000   1.00000
 Mulliken charges and spin densities with hydrogens summed into heavy atoms:
               1          2
     1  N    0.430389   0.371916
     2  O   -0.215195   0.314042
     3  O   -0.215195   0.314042
 Electronic spatial extent (au):  <R**2>=            102.6145
 Charge=             -0.0000 electrons
 Dipole moment (field-independent basis, Debye):
    X=              0.0000    Y=              0.0000    Z=              0.5721  Tot=              0.5721
 Quadrupole moment (field-independent basis, Debye-Ang):
   XX=            -14.5431   YY=            -17.6298   ZZ=            -14.9851
   XY=             -0.0000   XZ=             -0.0000   YZ=              0.0000
 Traceless Quadrupole moment (field-independent basis, Debye-Ang):
   XX=              1.1762   YY=             -1.9105   ZZ=              0.7343
   XY=             -0.0000   XZ=             -0.0000   YZ=              0.0000
 Octapole moment (field-independent basis, Debye-Ang**2):
  XXX=              0.0000  YYY=             -0.0000  ZZZ=             -0.9492  XYY=              0.0000
  XXY=             -0.0000  XXZ=             -0.1557  XZZ=              0.0000  YZZ=             -0.0000
  YYZ=             -0.3299  XYZ=              0.0000
 Hexadecapole moment (field-independent basis, Debye-Ang**3):
 XXXX=            -10.0639 YYYY=            -80.2228 ZZZZ=            -18.3822 XXXY=             -0.0000
 XXXZ=             -0.0000 YYYX=             -0.0000 YYYZ=              0.0000 ZZZX=             -0.0000
 ZZZY=              0.0000 XXYY=            -14.5386 XXZZ=             -4.6460 YYZZ=            -15.4916
 XXYZ=              0.0000 YYXZ=             -0.0000 ZZXY=             -0.0000
 N-N= 6.576355673972D+01 E-N=-6.138458776123D+02  KE= 2.034662022136D+02
 Symmetry A1   KE= 1.199363442429D+02
 Symmetry A2   KE= 5.053712099418D+00
 Symmetry B1   KE= 3.817967902054D+00
 Symmetry B2   KE= 7.465817796919D+01
                          Isotropic Fermi Contact Couplings
        Atom                 a.u.       MegaHertz       Gauss      10(-4) cm-1
     1  N(14)              0.42019     135.76620      48.44475      45.28673
     2  O(17)              0.04798     -29.08326     -10.37763      -9.70113
     3  O(17)              0.04798     -29.08326     -10.37763      -9.70113
 --------------------------------------------------------
       Center         ----  Spin Dipole Couplings  ----
                      3XX-RR        3YY-RR        3ZZ-RR
 --------------------------------------------------------
     1   Atom       -0.397891     -0.443442      0.841333
     2   Atom       -0.743277     -0.742539      1.485816
     3   Atom       -0.743277     -0.742539      1.485816
 --------------------------------------------------------
                        XY            XZ            YZ
 --------------------------------------------------------
     1   Atom        0.000000      0.000000      0.000000
     2   Atom        0.000000      0.000000      0.054058
     3   Atom        0.000000      0.000000     -0.054058
 --------------------------------------------------------


 ---------------------------------------------------------------------------------
              Anisotropic Spin Dipole Couplings in Principal Axis System
 ---------------------------------------------------------------------------------

       Atom             a.u.   MegaHertz   Gauss  10(-4) cm-1        Axes

              Baa    -0.4434   -17.103    -6.103    -5.705  0.0000  1.0000 -0.0000
     1 N(14)  Bbb    -0.3979   -15.346    -5.476    -5.119  1.0000 -0.0000 -0.0000
              Bcc     0.8413    32.448    11.578    10.824  0.0000  0.0000  1.0000
 
              Baa    -0.7439    53.824    19.206    17.954  0.0000  0.9997 -0.0242
     2 O(17)  Bbb    -0.7433    53.783    19.191    17.940  1.0000 -0.0000  0.0000
              Bcc     1.4871  -107.607   -38.397   -35.894  0.0000  0.0242  0.9997
 
              Baa    -0.7439    53.824    19.206    17.954 -0.0000  0.9997  0.0242
     3 O(17)  Bbb    -0.7433    53.783    19.191    17.940  1.0000  0.0000  0.0000
              Bcc     1.4871  -107.607   -38.397   -35.894  0.0000 -0.0242  0.9997
 

 ---------------------------------------------------------------------------------

 Calling FoFJK, ICntrl=      2127 FMM=F ISym2X=1 I1Cent= 0 IOpClX= 1 NMat=1 NMatS=1 NMatT=0.
 ***** Axes restored to original set *****
 -------------------------------------------------------------------
 Center     Atomic                   Forces (Hartrees/Bohr)
 Number     Number              X              Y              Z
 -------------------------------------------------------------------
      1        7           0.050879717    0.000000000    0.029942825
      2        8          -0.053385365   -0.000000000    0.032514404
      3        8           0.002505648   -0.000000000   -0.062457228
 -------------------------------------------------------------------
 Cartesian Forces:  Max     0.062457228 RMS     0.035433326

 GradGradGradGradGradGradGradGradGradGradGradGradGradGradGradGradGradGrad
 Berny optimization.
 FormGI is forming the generalized inverse of G from B-inverse, IUseBI=4.
 Internal  Forces:  Max     0.121060463 RMS     0.074766322
 Search for a local minimum.
 Step number   1 out of a maximum of   20
 All quantities printed in internal units (Hartrees-Bohrs-Radians)
 Mixed Optimization -- RFO/linear search
 Second derivative matrix not updated -- first step.
 The second derivative matrix:
                          R1        R2        A1
           R1           1.04823
           R2           0.00000   1.04823
           A1           0.00000   0.00000   0.25000
 ITU=  0
     Eigenvalues ---    0.25000   1.04823   1.04823
 RFO step:  Lambda=-5.06677187D-02 EMin= 2.50000000D-01
 Linear search not attempted -- first point.
 Maximum step size (   0.300) exceeded in Quadratic search.
    -- Step size scaled by   0.741
 Iteration  1 RMS(Cart)=  0.13885396 RMS(Int)=  0.05960454
 Iteration  2 RMS(Cart)=  0.06148375 RMS(Int)=  0.00246704
 Iteration  3 RMS(Cart)=  0.00244030 RMS(Int)=  0.00000030
 Iteration  4 RMS(Cart)=  0.00000031 RMS(Int)=  0.00000000
 ClnCor:  largest displacement from symmetrization is 1.33D-15 for atom     1.
 Variable       Old X    -DE/DX   Delta X   Delta X   Delta X     New X
                                 (Linear)    (Quad)   (Total)
    R1        2.26767   0.03251   0.00000   0.02193   0.02193   2.28960
    R2        2.26767   0.03251   0.00000   0.02193   0.02193   2.28960
    A1        2.07775   0.12106   0.00000   0.29839   0.29839   2.37614
         Item               Value     Threshold  Converged?
 Maximum Force            0.121060     0.000450     NO 
 RMS     Force            0.074766     0.000300     NO 
 Maximum Displacement     0.196049     0.001800     NO 
 RMS     Displacement     0.196278     0.001200     NO 
 Predicted change in Energy=-2.591571D-02
 GradGradGradGradGradGradGradGradGradGradGradGradGradGradGradGradGradGrad

                          Input orientation:                          
 ---------------------------------------------------------------------
 Center     Atomic      Atomic             Coordinates (Angstroms)
 Number     Number       Type             X           Y           Z
 ---------------------------------------------------------------------
      1          7           0        0.089720   -0.000000    0.052800
      2          8           0       -0.090377   -0.000000    1.250944
      3          8           0        1.049732    0.000000   -0.686362
 ---------------------------------------------------------------------
                    Distance matrix (angstroms):
                    1          2          3
     1  N    0.000000
     2  O    1.211604   0.000000
     3  O    1.211604   2.247888   0.000000
 Stoichiometry    NO2(2)
 Framework group  C2V[C2(N),SGV(O2)]
 Deg. of freedom     2
 Full point group                 C2V     NOp   4
 Largest Abelian subgroup         C2V     NOp   4
 Largest concise Abelian subgroup C2      NOp   2
                         Standard orientation:                         
 ---------------------------------------------------------------------
 Center     Atomic      Atomic             Coordinates (Angstroms)
 Number     Number       Type             X           Y           Z
 ---------------------------------------------------------------------
      1          7           0       -0.000000    0.000000    0.314764
      2          8           0        0.000000    1.123944   -0.137709
      3          8           0       -0.000000   -1.123944   -0.137709
 ---------------------------------------------------------------------
 Rotational constants (GHZ):    253.4460665     12.5059234     11.9178544
 Standard basis: 6-31G(d) (6D, 7F)
 There are    19 symmetry adapted cartesian basis functions of A1  symmetry.
 There are     5 symmetry adapted cartesian basis functions of A2  symmetry.
 There are     7 symmetry adapted cartesian basis functions of B1  symmetry.
 There are    14 symmetry adapted cartesian basis functions of B2  symmetry.
 There are    19 symmetry adapted basis functions of A1  symmetry.
 There are     5 symmetry adapted basis functions of A2  symmetry.
 There are     7 symmetry adapted basis functions of B1  symmetry.
 There are    14 symmetry adapted basis functions of B2  symmetry.
    45 basis functions,    84 primitive gaussians,    45 cartesian basis functions
    12 alpha electrons       11 beta electrons
       nuclear repulsion energy        63.9831544821 Hartrees.
 NAtoms=    3 NActive=    3 NUniq=    2 SFac= 2.25D+00 NAtFMM=   60 NAOKFM=F Big=F
 Integral buffers will be    131072 words long.
 Raffenetti 2 integral format.
 Two-electron integral symmetry is turned on.
 One-electron integrals computed using PRISM.
 NBasis=    45 RedAO= T EigKep=  6.40D-03  NBF=    19     5     7    14
 NBsUse=    45 1.00D-06 EigRej= -1.00D+00 NBFU=    19     5     7    14
 Initial guess from the checkpoint file:  "/scratch/webmodemo/webmo-4350/333029/Gau-17453.chk"
 B after Tr=    -0.000000   -0.000000   -0.000000
         Rot=    1.000000    0.000000   -0.000000   -0.000000 Ang=   0.00 deg.
 Initial guess orbital symmetries:
 Alpha Orbitals:
       Occupied  (B2) (A1) (A1) (A1) (B2) (A1) (A1) (B1) (B2) (A2)
                 (B2) (A1)
       Virtual   (A1) (A1) (A1) (A1) (A1) (A1) (A1) (A1) (A1) (A1)
                 (A1) (A1) (A1) (A2) (A2) (A2) (A2) (B1) (B1) (B1)
                 (B1) (B1) (B1) (B2) (B2) (B2) (B2) (B2) (B2) (B2)
                 (B2) (B2) (B2)
 Beta  Orbitals:
       Occupied  (B2) (A1) (A1) (A1) (B2) (A1) (B1) (B2) (A1) (A2)
                 (B2)
       Virtual   (A1) (A1) (A1) (A1) (A1) (A1) (A1) (A1) (A1) (A1)
                 (A1) (A1) (A1) (A1) (A2) (A2) (A2) (A2) (B1) (B1)
                 (B1) (B1) (B1) (B1) (B2) (B2) (B2) (B2) (B2) (B2)
                 (B2) (B2) (B2) (B2)
 Initial guess <Sx>= 0.0000 <Sy>= 0.0000 <Sz>= 0.5000 <S**2>= 0.7534 S= 0.5017
 ExpMin= 2.12D-01 ExpMax= 5.48D+03 ExpMxC= 8.25D+02 IAcc=1 IRadAn=         1 AccDes= 0.00D+00
 Harris functional with IExCor=  402 and IRadAn=       1 diagonalized for initial guess.
 HarFok:  IExCor=  402 AccDes= 0.00D+00 IRadAn=         1 IDoV= 1 UseB2=F ITyADJ=14
 ICtDFT=  3500011 ScaDFX=  1.000000  1.000000  1.000000  1.000000
 FoFCou: FMM=F IPFlag=           0 FMFlag=      100000 FMFlg1=           0
         NFxFlg=           0 DoJE=T BraDBF=F KetDBF=T FulRan=T
         wScrn=  0.000000 ICntrl=     500 IOpCl=  0 I1Cent=   200000004 NGrid=           0
         NMat0=    1 NMatS0=      1 NMatT0=    0 NMatD0=    1 NMtDS0=    0 NMtDT0=    0
 Petite list used in FoFCou.
 Keep R1 and R2 ints in memory in symmetry-blocked form, NReq=1429298.
 Requested convergence on RMS density matrix=1.00D-08 within 128 cycles.
 Requested convergence on MAX density matrix=1.00D-06.
 Requested convergence on             energy=1.00D-06.
 No special actions if energy rises.
 Integral accuracy reduced to 1.0D-05 until final iterations.
 Initial convergence to 1.0D-05 achieved.  Increase integral accuracy.
 SCF Done:  E(UB3LYP) =  -205.071629057     A.U. after   14 cycles
            NFock= 14  Conv=0.35D-08     -V/T= 2.0089
 <Sx>= 0.0000 <Sy>= 0.0000 <Sz>= 0.5000 <S**2>= 0.7534 S= 0.5017
 <L.S>= 0.000000000000E+00
 Annihilation of the first spin contaminant:
 S**2 before annihilation     0.7534,   after     0.7500
 Calling FoFJK, ICntrl=      2127 FMM=F ISym2X=1 I1Cent= 0 IOpClX= 1 NMat=1 NMatS=1 NMatT=0.
 ***** Axes restored to original set *****
 -------------------------------------------------------------------
 Center     Atomic                   Forces (Hartrees/Bohr)
 Number     Number              X              Y              Z
 -------------------------------------------------------------------
      1        7          -0.000821441    0.000000000   -0.000483420
      2        8           0.009121470   -0.000000000   -0.014559848
      3        8          -0.008300029   -0.000000000    0.015043268
 -------------------------------------------------------------------
 Cartesian Forces:  Max     0.015043268 RMS     0.008105480

 GradGradGradGradGradGradGradGradGradGradGradGradGradGradGradGradGradGrad
 Berny optimization.
 Using GEDIIS/GDIIS optimizer.
 FormGI is forming the generalized inverse of G from B-inverse, IUseBI=4.
 Internal  Forces:  Max     0.015753948 RMS     0.015735083
 Search for a local minimum.
 Step number   2 out of a maximum of   20
 All quantities printed in internal units (Hartrees-Bohrs-Radians)
 Mixed Optimization -- RFO/linear search
 Update second derivatives using D2CorX and points    1    2
 DE= -1.40D-02 DEPred=-2.59D-02 R= 5.39D-01
 TightC=F SS=  1.41D+00  RLast= 3.00D-01 DXNew= 5.0454D-01 9.0000D-01
 Trust test= 5.39D-01 RLast= 3.00D-01 DXMaxT set to 5.05D-01
 The second derivative matrix:
                          R1        R2        A1
           R1           1.07980
           R2           0.03157   1.07980
           A1           0.08009   0.08009   0.44654
 ITU=  1  0
 Use linear search instead of GDIIS.
     Eigenvalues ---    0.42778   1.04823   1.13014
 RFO step:  Lambda=-1.34561919D-04 EMin= 4.27776087D-01
 Quartic linear search produced a step of -0.16476.
 Iteration  1 RMS(Cart)=  0.03105421 RMS(Int)=  0.00046415
 Iteration  2 RMS(Cart)=  0.00039268 RMS(Int)=  0.00000003
 Iteration  3 RMS(Cart)=  0.00000004 RMS(Int)=  0.00000000
 ClnCor:  largest displacement from symmetrization is 4.97D-16 for atom     3.
 Variable       Old X    -DE/DX   Delta X   Delta X   Delta X     New X
                                 (Linear)    (Quad)   (Total)
    R1        2.28960  -0.01575  -0.00361  -0.00779  -0.01140   2.27820
    R2        2.28960  -0.01575  -0.00361  -0.00779  -0.01140   2.27820
    A1        2.37614  -0.01570  -0.04916   0.00550  -0.04367   2.33247
         Item               Value     Threshold  Converged?
 Maximum Force            0.015754     0.000450     NO 
 RMS     Force            0.015735     0.000300     NO 
 Maximum Displacement     0.032603     0.001800     NO 
 RMS     Displacement     0.031182     0.001200     NO 
 Predicted change in Energy=-3.947231D-04
 GradGradGradGradGradGradGradGradGradGradGradGradGradGradGradGradGradGrad

                          Input orientation:                          
 ---------------------------------------------------------------------
 Center     Atomic      Atomic             Coordinates (Angstroms)
 Number     Number       Type             X           Y           Z
 ---------------------------------------------------------------------
      1          7           0        0.077047   -0.000000    0.045342
      2          8           0       -0.076082   -0.000000    1.241149
      3          8           0        1.048109    0.000000   -0.669109
 ---------------------------------------------------------------------
                    Distance matrix (angstroms):
                    1          2          3
     1  N    0.000000
     2  O    1.205571   0.000000
     3  O    1.205571   2.216504   0.000000
 Stoichiometry    NO2(2)
 Framework group  C2V[C2(N),SGV(O2)]
 Deg. of freedom     2
 Full point group                 C2V     NOp   4
 Largest Abelian subgroup         C2V     NOp   4
 Largest concise Abelian subgroup C2      NOp   2
                         Standard orientation:                         
 ---------------------------------------------------------------------
 Center     Atomic      Atomic             Coordinates (Angstroms)
 Number     Number       Type             X           Y           Z
 ---------------------------------------------------------------------
      1          7           0        0.000000    0.000000    0.330108
      2          8           0       -0.000000    1.108252   -0.144422
      3          8           0       -0.000000   -1.108252   -0.144422
 ---------------------------------------------------------------------
 Rotational constants (GHZ):    230.4328415     12.8625798     12.1825589
 Standard basis: 6-31G(d) (6D, 7F)
 There are    19 symmetry adapted cartesian basis functions of A1  symmetry.
 There are     5 symmetry adapted cartesian basis functions of A2  symmetry.
 There are     7 symmetry adapted cartesian basis functions of B1  symmetry.
 There are    14 symmetry adapted cartesian basis functions of B2  symmetry.
 There are    19 symmetry adapted basis functions of A1  symmetry.
 There are     5 symmetry adapted basis functions of A2  symmetry.
 There are     7 symmetry adapted basis functions of B1  symmetry.
 There are    14 symmetry adapted basis functions of B2  symmetry.
    45 basis functions,    84 primitive gaussians,    45 cartesian basis functions
    12 alpha electrons       11 beta electrons
       nuclear repulsion energy        64.4412465511 Hartrees.
 NAtoms=    3 NActive=    3 NUniq=    2 SFac= 2.25D+00 NAtFMM=   60 NAOKFM=F Big=F
 Integral buffers will be    131072 words long.
 Raffenetti 2 integral format.
 Two-electron integral symmetry is turned on.
 One-electron integrals computed using PRISM.
 NBasis=    45 RedAO= T EigKep=  6.16D-03  NBF=    19     5     7    14
 NBsUse=    45 1.00D-06 EigRej= -1.00D+00 NBFU=    19     5     7    14
 Initial guess from the checkpoint file:  "/scratch/webmodemo/webmo-4350/333029/Gau-17453.chk"
 B after Tr=     0.000000   -0.000000    0.000000
         Rot=    1.000000   -0.000000    0.000000    0.000000 Ang=   0.00 deg.
 Initial guess orbital symmetries:
 Alpha Orbitals:
       Occupied  (B2) (A1) (A1) (A1) (B2) (A1) (B2) (A1) (B1) (B2)
                 (A2) (A1)
       Virtual   (A1) (A1) (A1) (A1) (A1) (A1) (A1) (A1) (A1) (A1)
                 (A1) (A1) (A1) (A2) (A2) (A2) (A2) (B1) (B1) (B1)
                 (B1) (B1) (B1) (B2) (B2) (B2) (B2) (B2) (B2) (B2)
                 (B2) (B2) (B2)
 Beta  Orbitals:
       Occupied  (B2) (A1) (A1) (A1) (B2) (A1) (B1) (B2) (A1) (A2)
                 (B2)
       Virtual   (A1) (A1) (A1) (A1) (A1) (A1) (A1) (A1) (A1) (A1)
                 (A1) (A1) (A1) (A1) (A2) (A2) (A2) (A2) (B1) (B1)
                 (B1) (B1) (B1) (B1) (B2) (B2) (B2) (B2) (B2) (B2)
                 (B2) (B2) (B2) (B2)
 Initial guess <Sx>= 0.0000 <Sy>= 0.0000 <Sz>= 0.5000 <S**2>= 0.7534 S= 0.5017
 ExpMin= 2.12D-01 ExpMax= 5.48D+03 ExpMxC= 8.25D+02 IAcc=1 IRadAn=         1 AccDes= 0.00D+00
 Harris functional with IExCor=  402 and IRadAn=       1 diagonalized for initial guess.
 HarFok:  IExCor=  402 AccDes= 0.00D+00 IRadAn=         1 IDoV= 1 UseB2=F ITyADJ=14
 ICtDFT=  3500011 ScaDFX=  1.000000  1.000000  1.000000  1.000000
 FoFCou: FMM=F IPFlag=           0 FMFlag=      100000 FMFlg1=           0
         NFxFlg=           0 DoJE=T BraDBF=F KetDBF=T FulRan=T
         wScrn=  0.000000 ICntrl=     500 IOpCl=  0 I1Cent=   200000004 NGrid=           0
         NMat0=    1 NMatS0=      1 NMatT0=    0 NMatD0=    1 NMtDS0=    0 NMtDT0=    0
 Petite list used in FoFCou.
 Keep R1 and R2 ints in memory in symmetry-blocked form, NReq=1429298.
 Requested convergence on RMS density matrix=1.00D-08 within 128 cycles.
 Requested convergence on MAX density matrix=1.00D-06.
 Requested convergence on             energy=1.00D-06.
 No special actions if energy rises.
 Integral accuracy reduced to 1.0D-05 until final iterations.
 Initial convergence to 1.0D-05 achieved.  Increase integral accuracy.
 SCF Done:  E(UB3LYP) =  -205.072187111     A.U. after   13 cycles
            NFock= 13  Conv=0.15D-08     -V/T= 2.0087
 <Sx>= 0.0000 <Sy>= 0.0000 <Sz>= 0.5000 <S**2>= 0.7533 S= 0.5017
 <L.S>= 0.000000000000E+00
 Annihilation of the first spin contaminant:
 S**2 before annihilation     0.7533,   after     0.7500
 Calling FoFJK, ICntrl=      2127 FMM=F ISym2X=1 I1Cent= 0 IOpClX= 1 NMat=1 NMatS=1 NMatT=0.
 ***** Axes restored to original set *****
 -------------------------------------------------------------------
 Center     Atomic                   Forces (Hartrees/Bohr)
 Number     Number              X              Y              Z
 -------------------------------------------------------------------
      1        7           0.003132495    0.000000000    0.001843480
      2        8           0.000164073   -0.000000000   -0.003861950
      3        8          -0.003296567   -0.000000000    0.002018470
 -------------------------------------------------------------------
 Cartesian Forces:  Max     0.003861950 RMS     0.002188203

 GradGradGradGradGradGradGradGradGradGradGradGradGradGradGradGradGradGrad
 Berny optimization.
 Using GEDIIS/GDIIS optimizer.
 FormGI is forming the generalized inverse of G from B-inverse, IUseBI=4.
 Internal  Forces:  Max     0.003851510 RMS     0.003174163
 Search for a local minimum.
 Step number   3 out of a maximum of   20
 All quantities printed in internal units (Hartrees-Bohrs-Radians)
 Mixed Optimization -- RFO/linear search
 Update second derivatives using D2CorX and points    1    2    3
 DE= -5.58D-04 DEPred=-3.95D-04 R= 1.41D+00
 TightC=F SS=  1.41D+00  RLast= 4.65D-02 DXNew= 8.4853D-01 1.3965D-01
 Trust test= 1.41D+00 RLast= 4.65D-02 DXMaxT set to 5.05D-01
 The second derivative matrix:
                          R1        R2        A1
           R1           1.01868
           R2          -0.02955   1.01868
           A1           0.01436   0.01436   0.36906
 ITU=  1  1  0
 Use linear search instead of GDIIS.
     Eigenvalues ---    0.36840   0.98979   1.04823
 RFO step:  Lambda=-2.92529435D-05 EMin= 3.68400696D-01
 Quartic linear search produced a step of  0.05301.
 Iteration  1 RMS(Cart)=  0.00281565 RMS(Int)=  0.00000285
 Iteration  2 RMS(Cart)=  0.00000338 RMS(Int)=  0.00000000
 Iteration  3 RMS(Cart)=  0.00000000 RMS(Int)=  0.00000000
 ClnCor:  largest displacement from symmetrization is 4.40D-15 for atom     3.
 Variable       Old X    -DE/DX   Delta X   Delta X   Delta X     New X
                                 (Linear)    (Quad)   (Total)
    R1        2.27820  -0.00385  -0.00060  -0.00331  -0.00392   2.27428
    R2        2.27820  -0.00385  -0.00060  -0.00331  -0.00392   2.27428
    A1        2.33247   0.00075  -0.00231   0.00479   0.00248   2.33495
         Item               Value     Threshold  Converged?
 Maximum Force            0.003852     0.000450     NO 
 RMS     Force            0.003174     0.000300     NO 
 Maximum Displacement     0.002846     0.001800     NO 
 RMS     Displacement     0.002816     0.001200     NO 
 Predicted change in Energy=-1.599276D-05
 GradGradGradGradGradGradGradGradGradGradGradGradGradGradGradGradGradGrad

                          Input orientation:                          
 ---------------------------------------------------------------------
 Center     Atomic      Atomic             Coordinates (Angstroms)
 Number     Number       Type             X           Y           Z
 ---------------------------------------------------------------------
      1          7           0        0.078303    0.000000    0.046082
      2          8           0       -0.076041   -0.000000    1.239643
      3          8           0        1.046812    0.000000   -0.668342
 ---------------------------------------------------------------------
                    Distance matrix (angstroms):
                    1          2          3
     1  N    0.000000
     2  O    1.203500   0.000000
     3  O    1.203500   2.213867   0.000000
 Stoichiometry    NO2(2)
 Framework group  C2V[C2(N),SGV(O2)]
 Deg. of freedom     2
 Full point group                 C2V     NOp   4
 Largest Abelian subgroup         C2V     NOp   4
 Largest concise Abelian subgroup C2      NOp   2
                         Standard orientation:                         
 ---------------------------------------------------------------------
 Center     Atomic      Atomic             Coordinates (Angstroms)
 Number     Number       Type             X           Y           Z
 ---------------------------------------------------------------------
      1          7           0       -0.000000    0.000000    0.328587
      2          8           0       -0.000000    1.106934   -0.143757
      3          8           0       -0.000000   -1.106934   -0.143757
 ---------------------------------------------------------------------
 Rotational constants (GHZ):    232.5710566     12.8932411     12.2160116
 Standard basis: 6-31G(d) (6D, 7F)
 There are    19 symmetry adapted cartesian basis functions of A1  symmetry.
 There are     5 symmetry adapted cartesian basis functions of A2  symmetry.
 There are     7 symmetry adapted cartesian basis functions of B1  symmetry.
 There are    14 symmetry adapted cartesian basis functions of B2  symmetry.
 There are    19 symmetry adapted basis functions of A1  symmetry.
 There are     5 symmetry adapted basis functions of A2  symmetry.
 There are     7 symmetry adapted basis functions of B1  symmetry.
 There are    14 symmetry adapted basis functions of B2  symmetry.
    45 basis functions,    84 primitive gaussians,    45 cartesian basis functions
    12 alpha electrons       11 beta electrons
       nuclear repulsion energy        64.5440774073 Hartrees.
 NAtoms=    3 NActive=    3 NUniq=    2 SFac= 2.25D+00 NAtFMM=   60 NAOKFM=F Big=F
 Integral buffers will be    131072 words long.
 Raffenetti 2 integral format.
 Two-electron integral symmetry is turned on.
 One-electron integrals computed using PRISM.
 NBasis=    45 RedAO= T EigKep=  6.11D-03  NBF=    19     5     7    14
 NBsUse=    45 1.00D-06 EigRej= -1.00D+00 NBFU=    19     5     7    14
 Initial guess from the checkpoint file:  "/scratch/webmodemo/webmo-4350/333029/Gau-17453.chk"
 B after Tr=     0.000000    0.000000    0.000000
         Rot=    1.000000    0.000000   -0.000000   -0.000000 Ang=   0.00 deg.
 Initial guess orbital symmetries:
 Alpha Orbitals:
       Occupied  (B2) (A1) (A1) (A1) (B2) (A1) (A1) (B2) (B1) (B2)
                 (A2) (A1)
       Virtual   (A1) (A1) (A1) (A1) (A1) (A1) (A1) (A1) (A1) (A1)
                 (A1) (A1) (A1) (A2) (A2) (A2) (A2) (B1) (B1) (B1)
                 (B1) (B1) (B1) (B2) (B2) (B2) (B2) (B2) (B2) (B2)
                 (B2) (B2) (B2)
 Beta  Orbitals:
       Occupied  (B2) (A1) (A1) (A1) (B2) (A1) (B1) (B2) (A1) (A2)
                 (B2)
       Virtual   (A1) (A1) (A1) (A1) (A1) (A1) (A1) (A1) (A1) (A1)
                 (A1) (A1) (A1) (A1) (A2) (A2) (A2) (A2) (B1) (B1)
                 (B1) (B1) (B1) (B1) (B2) (B2) (B2) (B2) (B2) (B2)
                 (B2) (B2) (B2) (B2)
 Initial guess <Sx>= 0.0000 <Sy>= 0.0000 <Sz>= 0.5000 <S**2>= 0.7533 S= 0.5017
 Keep R1 and R2 ints in memory in symmetry-blocked form, NReq=1429298.
 Requested convergence on RMS density matrix=1.00D-08 within 128 cycles.
 Requested convergence on MAX density matrix=1.00D-06.
 Requested convergence on             energy=1.00D-06.
 No special actions if energy rises.
 SCF Done:  E(UB3LYP) =  -205.072205670     A.U. after    9 cycles
            NFock=  9  Conv=0.67D-08     -V/T= 2.0086
 <Sx>= 0.0000 <Sy>= 0.0000 <Sz>= 0.5000 <S**2>= 0.7533 S= 0.5017
 <L.S>= 0.000000000000E+00
 Annihilation of the first spin contaminant:
 S**2 before annihilation     0.7533,   after     0.7500
 Calling FoFJK, ICntrl=      2127 FMM=F ISym2X=1 I1Cent= 0 IOpClX= 1 NMat=1 NMatS=1 NMatT=0.
 ***** Axes restored to original set *****
 -------------------------------------------------------------------
 Center     Atomic                   Forces (Hartrees/Bohr)
 Number     Number              X              Y              Z
 -------------------------------------------------------------------
      1        7           0.000576616    0.000000000    0.000339340
      2        8          -0.000056891   -0.000000000   -0.000562901
      3        8          -0.000519725   -0.000000000    0.000223561
 -------------------------------------------------------------------
 Cartesian Forces:  Max     0.000576616 RMS     0.000347663

 GradGradGradGradGradGradGradGradGradGradGradGradGradGradGradGradGradGrad
 Berny optimization.
 Using GEDIIS/GDIIS optimizer.
 FormGI is forming the generalized inverse of G from B-inverse, IUseBI=4.
 Internal  Forces:  Max     0.000550956 RMS     0.000480507
 Search for a local minimum.
 Step number   4 out of a maximum of   20
 All quantities printed in internal units (Hartrees-Bohrs-Radians)
 Mixed Optimization -- En-DIIS/RFO-DIIS
 Update second derivatives using D2CorX and points    1    2    3    4
 DE= -1.86D-05 DEPred=-1.60D-05 R= 1.16D+00
 TightC=F SS=  1.41D+00  RLast= 6.07D-03 DXNew= 8.4853D-01 1.8198D-02
 Trust test= 1.16D+00 RLast= 6.07D-03 DXMaxT set to 5.05D-01
 The second derivative matrix:
                          R1        R2        A1
           R1           0.96331
           R2          -0.08492   0.96331
           A1           0.05587   0.05587   0.35994
 ITU=  1  1  1  0
 Use linear search instead of GDIIS.
     Eigenvalues ---    0.34816   0.89017   1.04823
 RFO step:  Lambda=-1.19593789D-07 EMin= 3.48160763D-01
 Quartic linear search produced a step of  0.18510.
 Iteration  1 RMS(Cart)=  0.00064482 RMS(Int)=  0.00000030
 Iteration  2 RMS(Cart)=  0.00000035 RMS(Int)=  0.00000000
 ClnCor:  largest displacement from symmetrization is 3.47D-15 for atom     3.
 Variable       Old X    -DE/DX   Delta X   Delta X   Delta X     New X
                                 (Linear)    (Quad)   (Total)
    R1        2.27428  -0.00055  -0.00072   0.00004  -0.00069   2.27360
    R2        2.27428  -0.00055  -0.00072   0.00004  -0.00069   2.27360
    A1        2.33495   0.00029   0.00046   0.00056   0.00102   2.33597
         Item               Value     Threshold  Converged?
 Maximum Force            0.000551     0.000450     NO 
 RMS     Force            0.000481     0.000300     NO 
 Maximum Displacement     0.000766     0.001800     YES
 RMS     Displacement     0.000645     0.001200     YES
 Predicted change in Energy=-5.318428D-07
 GradGradGradGradGradGradGradGradGradGradGradGradGradGradGradGradGradGrad

                          Input orientation:                          
 ---------------------------------------------------------------------
 Center     Atomic      Atomic             Coordinates (Angstroms)
 Number     Number       Type             X           Y           Z
 ---------------------------------------------------------------------
      1          7           0        0.078709    0.000000    0.046320
      2          8           0       -0.076196   -0.000000    1.239443
      3          8           0        1.046562    0.000000   -0.668380
 ---------------------------------------------------------------------
                    Distance matrix (angstroms):
                    1          2          3
     1  N    0.000000
     2  O    1.203136   0.000000
     3  O    1.203136   2.213679   0.000000
 Stoichiometry    NO2(2)
 Framework group  C2V[C2(N),SGV(O2)]
 Deg. of freedom     2
 Full point group                 C2V     NOp   4
 Largest Abelian subgroup         C2V     NOp   4
 Largest concise Abelian subgroup C2      NOp   2
                         Standard orientation:                         
 ---------------------------------------------------------------------
 Center     Atomic      Atomic             Coordinates (Angstroms)
 Number     Number       Type             X           Y           Z
 ---------------------------------------------------------------------
      1          7           0        0.000000   -0.000000    0.328097
      2          8           0       -0.000000    1.106840   -0.143542
      3          8           0       -0.000000   -1.106840   -0.143542
 ---------------------------------------------------------------------
 Rotational constants (GHZ):    233.2671175     12.8954324     12.2198943
 Standard basis: 6-31G(d) (6D, 7F)
 There are    19 symmetry adapted cartesian basis functions of A1  symmetry.
 There are     5 symmetry adapted cartesian basis functions of A2  symmetry.
 There are     7 symmetry adapted cartesian basis functions of B1  symmetry.
 There are    14 symmetry adapted cartesian basis functions of B2  symmetry.
 There are    19 symmetry adapted basis functions of A1  symmetry.
 There are     5 symmetry adapted basis functions of A2  symmetry.
 There are     7 symmetry adapted basis functions of B1  symmetry.
 There are    14 symmetry adapted basis functions of B2  symmetry.
    45 basis functions,    84 primitive gaussians,    45 cartesian basis functions
    12 alpha electrons       11 beta electrons
       nuclear repulsion energy        64.5602414737 Hartrees.
 NAtoms=    3 NActive=    3 NUniq=    2 SFac= 2.25D+00 NAtFMM=   60 NAOKFM=F Big=F
 Integral buffers will be    131072 words long.
 Raffenetti 2 integral format.
 Two-electron integral symmetry is turned on.
 One-electron integrals computed using PRISM.
 NBasis=    45 RedAO= T EigKep=  6.11D-03  NBF=    19     5     7    14
 NBsUse=    45 1.00D-06 EigRej= -1.00D+00 NBFU=    19     5     7    14
 Initial guess from the checkpoint file:  "/scratch/webmodemo/webmo-4350/333029/Gau-17453.chk"
 B after Tr=     0.000000    0.000000    0.000000
         Rot=    1.000000   -0.000000   -0.000000    0.000000 Ang=   0.00 deg.
 Initial guess orbital symmetries:
 Alpha Orbitals:
       Occupied  (B2) (A1) (A1) (A1) (B2) (A1) (A1) (B2) (B1) (B2)
                 (A2) (A1)
       Virtual   (A1) (A1) (A1) (A1) (A1) (A1) (A1) (A1) (A1) (A1)
                 (A1) (A1) (A1) (A2) (A2) (A2) (A2) (B1) (B1) (B1)
                 (B1) (B1) (B1) (B2) (B2) (B2) (B2) (B2) (B2) (B2)
                 (B2) (B2) (B2)
 Beta  Orbitals:
       Occupied  (B2) (A1) (A1) (A1) (B2) (A1) (B1) (B2) (A1) (A2)
                 (B2)
       Virtual   (A1) (A1) (A1) (A1) (A1) (A1) (A1) (A1) (A1) (A1)
                 (A1) (A1) (A1) (A1) (A2) (A2) (A2) (A2) (B1) (B1)
                 (B1) (B1) (B1) (B1) (B2) (B2) (B2) (B2) (B2) (B2)
                 (B2) (B2) (B2) (B2)
 Initial guess <Sx>= 0.0000 <Sy>= 0.0000 <Sz>= 0.5000 <S**2>= 0.7533 S= 0.5016
 Keep R1 and R2 ints in memory in symmetry-blocked form, NReq=1429298.
 Requested convergence on RMS density matrix=1.00D-08 within 128 cycles.
 Requested convergence on MAX density matrix=1.00D-06.
 Requested convergence on             energy=1.00D-06.
 No special actions if energy rises.
 SCF Done:  E(UB3LYP) =  -205.072206197     A.U. after    8 cycles
            NFock=  8  Conv=0.62D-08     -V/T= 2.0086
 <Sx>= 0.0000 <Sy>= 0.0000 <Sz>= 0.5000 <S**2>= 0.7533 S= 0.5016
 <L.S>= 0.000000000000E+00
 Annihilation of the first spin contaminant:
 S**2 before annihilation     0.7533,   after     0.7500
 Calling FoFJK, ICntrl=      2127 FMM=F ISym2X=1 I1Cent= 0 IOpClX= 1 NMat=1 NMatS=1 NMatT=0.
 ***** Axes restored to original set *****
 -------------------------------------------------------------------
 Center     Atomic                   Forces (Hartrees/Bohr)
 Number     Number              X              Y              Z
 -------------------------------------------------------------------
      1        7          -0.000000401    0.000000000   -0.000000236
      2        8           0.000000519   -0.000000000   -0.000000424
      3        8          -0.000000119   -0.000000000    0.000000660
 -------------------------------------------------------------------
 Cartesian Forces:  Max     0.000000660 RMS     0.000000352

 GradGradGradGradGradGradGradGradGradGradGradGradGradGradGradGradGradGrad
 Berny optimization.
 Using GEDIIS/GDIIS optimizer.
 FormGI is forming the generalized inverse of G from B-inverse, IUseBI=4.
 Internal  Forces:  Max     0.000001047 RMS     0.000000724
 Search for a local minimum.
 Step number   5 out of a maximum of   20
 All quantities printed in internal units (Hartrees-Bohrs-Radians)
 Mixed Optimization -- En-DIIS/RFO-DIIS
 Swapping is turned off.
 Update second derivatives using D2CorX and points    2    3    4    5
 DE= -5.27D-07 DEPred=-5.32D-07 R= 9.91D-01
 Trust test= 9.91D-01 RLast= 1.41D-03 DXMaxT set to 5.05D-01
 The second derivative matrix:
                          R1        R2        A1
           R1           0.96121
           R2          -0.08703   0.96121
           A1           0.04861   0.04861   0.35427
 ITU=  0  1  1  1
     Eigenvalues ---    0.34533   0.88312   1.04823
 En-DIIS/RFO-DIIS IScMMF=        0 using points:     5    4
 RFO step:  Lambda= 0.00000000D+00.
 DidBck=F Rises=F RFO-DIIS coefs:    0.99962    0.00038
 Iteration  1 RMS(Cart)=  0.00000188 RMS(Int)=  0.00000000
 Iteration  2 RMS(Cart)=  0.00000000 RMS(Int)=  0.00000000
 ClnCor:  largest displacement from symmetrization is 4.97D-16 for atom     3.
 Variable       Old X    -DE/DX   Delta X   Delta X   Delta X     New X
                                 (Linear)    (Quad)   (Total)
    R1        2.27360  -0.00000   0.00000  -0.00000  -0.00000   2.27360
    R2        2.27360  -0.00000   0.00000  -0.00000  -0.00000   2.27360
    A1        2.33597  -0.00000  -0.00000  -0.00000  -0.00000   2.33596
         Item               Value     Threshold  Converged?
 Maximum Force            0.000001     0.000450     YES
 RMS     Force            0.000001     0.000300     YES
 Maximum Displacement     0.000002     0.001800     YES
 RMS     Displacement     0.000002     0.001200     YES
 Predicted change in Energy=-1.684320D-12
 Optimization completed.
    -- Stationary point found.
                           ----------------------------
                           !   Optimized Parameters   !
                           ! (Angstroms and Degrees)  !
 --------------------------                            --------------------------
 ! Name  Definition              Value          Derivative Info.                !
 --------------------------------------------------------------------------------
 ! R1    R(1,2)                  1.2031         -DE/DX =    0.0                 !
 ! R2    R(1,3)                  1.2031         -DE/DX =    0.0                 !
 ! A1    A(2,1,3)              133.841          -DE/DX =    0.0                 !
 --------------------------------------------------------------------------------
 GradGradGradGradGradGradGradGradGradGradGradGradGradGradGradGradGradGrad

                          Input orientation:                          
 ---------------------------------------------------------------------
 Center     Atomic      Atomic             Coordinates (Angstroms)
 Number     Number       Type             X           Y           Z
 ---------------------------------------------------------------------
      1          7           0        0.078709    0.000000    0.046320
      2          8           0       -0.076196   -0.000000    1.239443
      3          8           0        1.046562    0.000000   -0.668380
 ---------------------------------------------------------------------
                    Distance matrix (angstroms):
                    1          2          3
     1  N    0.000000
     2  O    1.203136   0.000000
     3  O    1.203136   2.213679   0.000000
 Stoichiometry    NO2(2)
 Framework group  C2V[C2(N),SGV(O2)]
 Deg. of freedom     2
 Full point group                 C2V     NOp   4
 Largest Abelian subgroup         C2V     NOp   4
 Largest concise Abelian subgroup C2      NOp   2
                         Standard orientation:                         
 ---------------------------------------------------------------------
 Center     Atomic      Atomic             Coordinates (Angstroms)
 Number     Number       Type             X           Y           Z
 ---------------------------------------------------------------------
      1          7           0       -0.000000   -0.000000    0.328097
      2          8           0       -0.000000    1.106840   -0.143542
      3          8           0       -0.000000   -1.106840   -0.143542
 ---------------------------------------------------------------------
 Rotational constants (GHZ):    233.2671175     12.8954324     12.2198943

 **********************************************************************

            Population analysis using the SCF density.

 **********************************************************************

 Orbital symmetries:
 Alpha Orbitals:
       Occupied  (B2) (A1) (A1) (A1) (B2) (A1) (A1) (B2) (B1) (B2)
                 (A2) (A1)
       Virtual   (B1) (A1) (B2) (A1) (A1) (B2) (B1) (A1) (B2) (A2)
                 (A1) (B1) (B2) (A1) (A2) (B2) (B1) (A1) (B2) (A2)
                 (A1) (B1) (B2) (A1) (B1) (B2) (A1) (A2) (B2) (A1)
                 (A1) (B2) (A1)
 Beta  Orbitals:
       Occupied  (B2) (A1) (A1) (A1) (B2) (A1) (B1) (B2) (A1) (A2)
                 (B2)
       Virtual   (A1) (B1) (A1) (B2) (A1) (B2) (B1) (A1) (A1) (B2)
                 (A2) (A1) (B1) (B2) (A1) (A2) (B2) (B1) (A1) (B2)
                 (A2) (A1) (B2) (B1) (A1) (B1) (B2) (A1) (A2) (B2)
                 (A1) (A1) (B2) (A1)
 The electronic state is 2-A1.
 Alpha  occ. eigenvalues --  -19.26565 -19.26564 -14.58716  -1.28182  -1.13638
 Alpha  occ. eigenvalues --   -0.67824  -0.57495  -0.57203  -0.56498  -0.38154
 Alpha  occ. eigenvalues --   -0.37745  -0.28768
 Alpha virt. eigenvalues --   -0.09029   0.21021   0.36963   0.58381   0.59072
 Alpha virt. eigenvalues --    0.59287   0.61180   0.77973   0.82021   0.87939
 Alpha virt. eigenvalues --    0.88919   0.93811   0.95239   1.27333   1.37164
 Alpha virt. eigenvalues --    1.39005   1.39937   1.46787   1.71166   1.73076
 Alpha virt. eigenvalues --    1.81281   1.83232   1.83289   2.19674   2.32442
 Alpha virt. eigenvalues --    2.64152   2.69440   2.70398   2.77151   2.85835
 Alpha virt. eigenvalues --    3.40640   3.62605   3.70477
  Beta  occ. eigenvalues --  -19.25674 -19.25673 -14.57652  -1.26312  -1.11487
  Beta  occ. eigenvalues --   -0.64487  -0.55405  -0.54825  -0.52977  -0.36985
  Beta  occ. eigenvalues --   -0.34105
  Beta virt. eigenvalues --   -0.14307  -0.07380   0.22347   0.39535   0.59688
  Beta virt. eigenvalues --    0.59884   0.61971   0.62077   0.78557   0.83811
  Beta virt. eigenvalues --    0.88371   0.91486   0.94472   0.96901   1.28905
  Beta virt. eigenvalues --    1.37680   1.40290   1.42015   1.48847   1.72944
  Beta virt. eigenvalues --    1.74223   1.83403   1.84225   1.85522   2.21388
  Beta virt. eigenvalues --    2.33460   2.67029   2.71453   2.71489   2.78128
  Beta virt. eigenvalues --    2.87519   3.42442   3.63855   3.72447
          Condensed to atoms (all electrons):
               1          2          3
     1  N    6.025204   0.247067   0.247067
     2  O    0.247067   8.072514  -0.079250
     3  O    0.247067  -0.079250   8.072514
          Atomic-Atomic Spin Densities.
               1          2          3
     1  N    0.750833  -0.157138  -0.157138
     2  O   -0.157138   0.416549   0.022311
     3  O   -0.157138   0.022311   0.416549
 Mulliken charges and spin densities:
               1          2
     1  N    0.480661   0.436556
     2  O   -0.240331   0.281722
     3  O   -0.240331   0.281722
 Sum of Mulliken charges =  -0.00000   1.00000
 Mulliken charges and spin densities with hydrogens summed into heavy atoms:
               1          2
     1  N    0.480661   0.436556
     2  O   -0.240331   0.281722
     3  O   -0.240331   0.281722
 Electronic spatial extent (au):  <R**2>=            109.0873
 Charge=             -0.0000 electrons
 Dipole moment (field-independent basis, Debye):
    X=              0.0000    Y=             -0.0000    Z=              0.3213  Tot=              0.3213
 Quadrupole moment (field-independent basis, Debye-Ang):
   XX=            -14.5503   YY=            -17.5907   ZZ=            -15.2324
   XY=             -0.0000   XZ=             -0.0000   YZ=              0.0000
 Traceless Quadrupole moment (field-independent basis, Debye-Ang):
   XX=              1.2408   YY=             -1.7996   ZZ=              0.5588
   XY=             -0.0000   XZ=             -0.0000   YZ=              0.0000
 Octapole moment (field-independent basis, Debye-Ang**2):
  XXX=              0.0000  YYY=             -0.0000  ZZZ=             -0.7768  XYY=              0.0000
  XXY=             -0.0000  XXZ=             -0.1446  XZZ=              0.0000  YZZ=             -0.0000
  YYZ=             -0.3228  XYZ=              0.0000
 Hexadecapole moment (field-independent basis, Debye-Ang**3):
 XXXX=            -10.0751 YYYY=            -88.4415 ZZZZ=            -15.6339 XXXY=             -0.0000
 XXXZ=             -0.0000 YYYX=             -0.0000 YYYZ=              0.0000 ZZZX=             -0.0000
 ZZZY=              0.0000 XXYY=            -16.0283 XXZZ=             -4.2160 YYZZ=            -16.9117
 XXYZ=              0.0000 YYXZ=             -0.0000 ZZXY=             -0.0000
 N-N= 6.456024147366D+01 E-N=-6.112684398578D+02  KE= 2.033259976041D+02
 Symmetry A1   KE= 1.200697769156D+02
 Symmetry A2   KE= 5.000850063770D+00
 Symmetry B1   KE= 3.835731743567D+00
 Symmetry B2   KE= 7.441963888109D+01
                          Isotropic Fermi Contact Couplings
        Atom                 a.u.       MegaHertz       Gauss      10(-4) cm-1
     1  N(14)              0.46242     149.41120      53.31363      49.83821
     2  O(17)              0.06736     -40.83200     -14.56987     -13.62009
     3  O(17)              0.06736     -40.83200     -14.56987     -13.62009
 --------------------------------------------------------
       Center         ----  Spin Dipole Couplings  ----
                      3XX-RR        3YY-RR        3ZZ-RR
 --------------------------------------------------------
     1   Atom       -0.446962     -0.506882      0.953844
     2   Atom       -0.732491     -0.674970      1.407461
     3   Atom       -0.732491     -0.674970      1.407461
 --------------------------------------------------------
                        XY            XZ            YZ
 --------------------------------------------------------
     1   Atom        0.000000      0.000000     -0.000000
     2   Atom        0.000000      0.000000     -0.288097
     3   Atom        0.000000      0.000000      0.288097
 --------------------------------------------------------


 ---------------------------------------------------------------------------------
              Anisotropic Spin Dipole Couplings in Principal Axis System
 ---------------------------------------------------------------------------------

       Atom             a.u.   MegaHertz   Gauss  10(-4) cm-1        Axes

              Baa    -0.5069   -19.549    -6.976    -6.521  0.0000  1.0000  0.0000
     1 N(14)  Bbb    -0.4470   -17.238    -6.151    -5.750  1.0000 -0.0000 -0.0000
              Bcc     0.9538    36.788    13.127    12.271  0.0000 -0.0000  1.0000
 
              Baa    -0.7325    53.003    18.913    17.680  1.0000  0.0000  0.0000
     2 O(17)  Bbb    -0.7141    51.671    18.438    17.236 -0.0000  0.9909  0.1346
              Bcc     1.4466  -104.674   -37.350   -34.915  0.0000 -0.1346  0.9909
 
              Baa    -0.7325    53.003    18.913    17.680  1.0000 -0.0000  0.0000
     3 O(17)  Bbb    -0.7141    51.671    18.438    17.236  0.0000  0.9909 -0.1346
              Bcc     1.4466  -104.674   -37.350   -34.915  0.0000  0.1346  0.9909
 

 ---------------------------------------------------------------------------------

 B after Tr=     0.006467    0.000000    0.003806
         Rot=    1.000000    0.000000    0.000000    0.000000 Ang=   0.00 deg.
 Final structure in terms of initial Z-matrix:
 N
 O,1,B1
 O,1,B2,2,A1
      Variables:
 B1=1.20313636
 B2=1.20313636
 A1=133.84101915
 1\1\GINC-BUCHNER\FOpt\UB3LYP\6-31G(d)\N1O2(2)\WEBMODEMO\13-Oct-2017\0\
 \#N B3LYP/6-31G(d) OPT Geom=Connectivity\\O2N\\0,2\N,0.0787085851,0.,0
 .0463201745\O,-0.0761962278,0.,1.2394427987\O,1.0465619317,0.,-0.66838
 04602\\Version=EM64L-G09RevE.01\State=2-A1\HF=-205.0722062\S2=0.753297
 \S2-1=0.\S2A=0.750007\RMSD=6.240e-09\RMSF=3.521e-07\Dipole=-0.1089466,
 0.,-0.0641153\Quadrupole=-0.0356119,0.9225098,-0.8868979,0.,0.7664225,
 0.\PG=C02V [C2(N1),SGV(O2)]\\@


 LAWS OF PROGRAMMING DEFINITION:  A WORKING PROGRAM
                                  IS ONE THAT HAS
                                  ONLY UNOBSERVED
                                  BUGS.
 Job cpu time:       0 days  0 hours  0 minutes  8.9 seconds.
 File lengths (MBytes):  RWF=      5 Int=      0 D2E=      0 Chk=      1 Scr=      1
 Normal termination of Gaussian 09 at Fri Oct 13 15:47:21 2017.
