 Entering Gaussian System, Link 0=/usr/local/g09/g09
 Initial command:
 /usr/local/g09/l1.exe "/scratch/webmodemo/webmo-4350/333031/Gau-17711.inp" -scrdir="/scratch/webmodemo/webmo-4350/333031/"
 Entering Link 1 = /usr/local/g09/l1.exe PID=     17712.
  
 Copyright (c) 1988,1990,1992,1993,1995,1998,2003,2009,2015,
            Gaussian, Inc.  All Rights Reserved.
  
 This is part of the Gaussian(R) 09 program.  It is based on
 the Gaussian(R) 03 system (copyright 2003, Gaussian, Inc.),
 the Gaussian(R) 98 system (copyright 1998, Gaussian, Inc.),
 the Gaussian(R) 94 system (copyright 1995, Gaussian, Inc.),
 the Gaussian 92(TM) system (copyright 1992, Gaussian, Inc.),
 the Gaussian 90(TM) system (copyright 1990, Gaussian, Inc.),
 the Gaussian 88(TM) system (copyright 1988, Gaussian, Inc.),
 the Gaussian 86(TM) system (copyright 1986, Carnegie Mellon
 University), and the Gaussian 82(TM) system (copyright 1983,
 Carnegie Mellon University). Gaussian is a federally registered
 trademark of Gaussian, Inc.
  
 This software contains proprietary and confidential information,
 including trade secrets, belonging to Gaussian, Inc.
  
 This software is provided under written license and may be
 used, copied, transmitted, or stored only in accord with that
 written license.
  
 The following legend is applicable only to US Government
 contracts under FAR:
  
                    RESTRICTED RIGHTS LEGEND
  
 Use, reproduction and disclosure by the US Government is
 subject to restrictions as set forth in subparagraphs (a)
 and (c) of the Commercial Computer Software - Restricted
 Rights clause in FAR 52.227-19.
  
 Gaussian, Inc.
 340 Quinnipiac St., Bldg. 40, Wallingford CT 06492
  
  
 ---------------------------------------------------------------
 Warning -- This program may not be used in any manner that
 competes with the business of Gaussian, Inc. or will provide
 assistance to any competitor of Gaussian, Inc.  The licensee
 of this program is prohibited from giving any competitor of
 Gaussian, Inc. access to this program.  By using this program,
 the user acknowledges that Gaussian, Inc. is engaged in the
 business of creating and licensing software in the field of
 computational chemistry and represents and warrants to the
 licensee that it is not a competitor of Gaussian, Inc. and that
 it will not use this program in any manner prohibited above.
 ---------------------------------------------------------------
  

 Cite this work as:
 Gaussian 09, Revision E.01,
 M. J. Frisch, G. W. Trucks, H. B. Schlegel, G. E. Scuseria, 
 M. A. Robb, J. R. Cheeseman, G. Scalmani, V. Barone, B. Mennucci, 
 G. A. Petersson, H. Nakatsuji, M. Caricato, X. Li, H. P. Hratchian, 
 A. F. Izmaylov, J. Bloino, G. Zheng, J. L. Sonnenberg, M. Hada, 
 M. Ehara, K. Toyota, R. Fukuda, J. Hasegawa, M. Ishida, T. Nakajima, 
 Y. Honda, O. Kitao, H. Nakai, T. Vreven, J. A. Montgomery, Jr., 
 J. E. Peralta, F. Ogliaro, M. Bearpark, J. J. Heyd, E. Brothers, 
 K. N. Kudin, V. N. Staroverov, T. Keith, R. Kobayashi, J. Normand, 
 K. Raghavachari, A. Rendell, J. C. Burant, S. S. Iyengar, J. Tomasi, 
 M. Cossi, N. Rega, J. M. Millam, M. Klene, J. E. Knox, J. B. Cross, 
 V. Bakken, C. Adamo, J. Jaramillo, R. Gomperts, R. E. Stratmann, 
 O. Yazyev, A. J. Austin, R. Cammi, C. Pomelli, J. W. Ochterski, 
 R. L. Martin, K. Morokuma, V. G. Zakrzewski, G. A. Voth, 
 P. Salvador, J. J. Dannenberg, S. Dapprich, A. D. Daniels, 
 O. Farkas, J. B. Foresman, J. V. Ortiz, J. Cioslowski, 
 and D. J. Fox, Gaussian, Inc., Wallingford CT, 2013.
 
 ******************************************
 Gaussian 09:  EM64L-G09RevE.01 30-Nov-2015
                13-Oct-2017 
 ******************************************
 ---------------------------------------
 #N B3LYP/6-31G(d) OPT Geom=Connectivity
 ---------------------------------------
 1/14=-1,18=20,19=15,26=3,38=1,57=2/1,3;
 2/9=110,12=2,17=6,18=5,40=1/2;
 3/5=1,6=6,7=1,11=2,16=1,25=1,30=1,71=1,74=-5/1,2,3;
 4//1;
 5/5=2,38=5/2;
 6/7=2,8=2,9=2,10=2,28=1/1;
 7//1,2,3,16;
 1/14=-1,18=20,19=15,26=3/3(2);
 2/9=110/2;
 99//99;
 2/9=110/2;
 3/5=1,6=6,7=1,11=2,16=1,25=1,30=1,71=1,74=-5/1,2,3;
 4/5=5,16=3,69=1/1;
 5/5=2,38=5/2;
 7//1,2,3,16;
 1/14=-1,18=20,19=15,26=3/3(-5);
 2/9=110/2;
 6/7=2,8=2,9=2,10=2,19=2,28=1/1;
 99/9=1/99;
 ---
 O2S
 ---
 Symbolic Z-matrix:
 Charge =  0 Multiplicity = 1
 S
 O                    1    B1
 O                    1    B2       2    A1
       Variables:
  B1                    1.5                      
  B2                    1.5                      
  A1                  133.84102                  
 

 GradGradGradGradGradGradGradGradGradGradGradGradGradGradGradGradGradGrad
 Berny optimization.
 Initialization pass.
                           ----------------------------
                           !    Initial Parameters    !
                           ! (Angstroms and Degrees)  !
 --------------------------                            --------------------------
 ! Name  Definition              Value          Derivative Info.                !
 --------------------------------------------------------------------------------
 ! R1    R(1,2)                  1.5            estimate D2E/DX2                !
 ! R2    R(1,3)                  1.5            estimate D2E/DX2                !
 ! A1    A(2,1,3)              133.841          estimate D2E/DX2                !
 --------------------------------------------------------------------------------
 Trust Radius=3.00D-01 FncErr=1.00D-07 GrdErr=1.00D-06
 Number of steps in this run=     20 maximum allowed number of steps=    100.
 GradGradGradGradGradGradGradGradGradGradGradGradGradGradGradGradGradGrad

                          Input orientation:                          
 ---------------------------------------------------------------------
 Center     Atomic      Atomic             Coordinates (Angstroms)
 Number     Number       Type             X           Y           Z
 ---------------------------------------------------------------------
      1         16           0        0.000000    0.000000    0.000000
      2          8           0        0.000000    0.000000    1.500000
      3          8           0        1.081897    0.000000   -1.038990
 ---------------------------------------------------------------------
                    Distance matrix (angstroms):
                    1          2          3
     1  S    0.000000
     2  O    1.500000   0.000000
     3  O    1.500000   2.759886   0.000000
 Stoichiometry    O2S
 Framework group  C2V[C2(S),SGV(O2)]
 Deg. of freedom     2
 Full point group                 C2V     NOp   4
 Largest Abelian subgroup         C2V     NOp   4
 Largest concise Abelian subgroup C2      NOp   2
                         Standard orientation:                         
 ---------------------------------------------------------------------
 Center     Atomic      Atomic             Coordinates (Angstroms)
 Number     Number       Type             X           Y           Z
 ---------------------------------------------------------------------
      1         16           0        0.000000    0.000000    0.294006
      2          8           0        0.000000    1.379943   -0.294006
      3          8           0       -0.000000   -1.379943   -0.294006
 ---------------------------------------------------------------------
 Rotational constants (GHZ):     91.4079424      8.2962738      7.6059504
 Standard basis: 6-31G(d) (6D, 7F)
 There are    21 symmetry adapted cartesian basis functions of A1  symmetry.
 There are     5 symmetry adapted cartesian basis functions of A2  symmetry.
 There are     8 symmetry adapted cartesian basis functions of B1  symmetry.
 There are    15 symmetry adapted cartesian basis functions of B2  symmetry.
 There are    21 symmetry adapted basis functions of A1  symmetry.
 There are     5 symmetry adapted basis functions of A2  symmetry.
 There are     8 symmetry adapted basis functions of B1  symmetry.
 There are    15 symmetry adapted basis functions of B2  symmetry.
    49 basis functions,   108 primitive gaussians,    49 cartesian basis functions
    16 alpha electrons       16 beta electrons
       nuclear repulsion energy       102.5841943735 Hartrees.
 NAtoms=    3 NActive=    3 NUniq=    2 SFac= 2.25D+00 NAtFMM=   60 NAOKFM=F Big=F
 Integral buffers will be    131072 words long.
 Raffenetti 2 integral format.
 Two-electron integral symmetry is turned on.
 One-electron integrals computed using PRISM.
 NBasis=    49 RedAO= T EigKep=  1.69D-02  NBF=    21     5     8    15
 NBsUse=    49 1.00D-06 EigRej= -1.00D+00 NBFU=    21     5     8    15
 ExpMin= 1.17D-01 ExpMax= 2.19D+04 ExpMxC= 3.30D+03 IAcc=1 IRadAn=         1 AccDes= 0.00D+00
 Harris functional with IExCor=  402 and IRadAn=       1 diagonalized for initial guess.
 HarFok:  IExCor=  402 AccDes= 0.00D+00 IRadAn=         1 IDoV= 1 UseB2=F ITyADJ=14
 ICtDFT=  3500011 ScaDFX=  1.000000  1.000000  1.000000  1.000000
 FoFCou: FMM=F IPFlag=           0 FMFlag=      100000 FMFlg1=           0
         NFxFlg=           0 DoJE=T BraDBF=F KetDBF=T FulRan=T
         wScrn=  0.000000 ICntrl=     500 IOpCl=  0 I1Cent=   200000004 NGrid=           0
         NMat0=    1 NMatS0=      1 NMatT0=    0 NMatD0=    1 NMtDS0=    0 NMtDT0=    0
 Petite list used in FoFCou.
 Initial guess orbital symmetries:
       Occupied  (A1) (B2) (A1) (A1) (B2) (A1) (B1) (A1) (B2) (A1)
                 (B2) (A1) (B1) (A2) (B2) (A1)
       Virtual   (B1) (A1) (B2) (A1) (B1) (A1) (B2) (A2) (A1) (B1)
                 (A1) (B2) (A2) (B2) (A1) (B1) (B2) (A1) (B2) (A1)
                 (A2) (B2) (B1) (A1) (B1) (B2) (A2) (A1) (A1) (B2)
                 (A1) (B2) (A1)
 The electronic state of the initial guess is 1-A1.
 Keep R1 ints in memory in symmetry-blocked form, NReq=1649947.
 Requested convergence on RMS density matrix=1.00D-08 within 128 cycles.
 Requested convergence on MAX density matrix=1.00D-06.
 Requested convergence on             energy=1.00D-06.
 No special actions if energy rises.
 Integral accuracy reduced to 1.0D-05 until final iterations.
 Initial convergence to 1.0D-05 achieved.  Increase integral accuracy.
 SCF Done:  E(RB3LYP) =  -548.573506349     A.U. after   12 cycles
            NFock= 12  Conv=0.42D-08     -V/T= 2.0053

 **********************************************************************

            Population analysis using the SCF density.

 **********************************************************************

 Orbital symmetries:
       Occupied  (A1) (B2) (A1) (A1) (B2) (B1) (A1) (A1) (B2) (A1)
                 (B2) (B1) (A1) (A2) (B2) (A1)
       Virtual   (B1) (A1) (B2) (A1) (B1) (A1) (B2) (A2) (B1) (A1)
                 (B2) (A1) (A2) (B2) (A1) (B1) (B2) (A1) (B2) (A1)
                 (A2) (B2) (B1) (A1) (B1) (B2) (A2) (A1) (A1) (B2)
                 (A1) (B2) (A1)
 The electronic state is 1-A1.
 Alpha  occ. eigenvalues --  -89.08714 -19.22489 -19.22488  -8.12412  -6.08812
 Alpha  occ. eigenvalues --   -6.08755  -6.08285  -1.11905  -1.04647  -0.65196
 Alpha  occ. eigenvalues --   -0.49688  -0.48064  -0.47850  -0.37125  -0.36724
 Alpha  occ. eigenvalues --   -0.31745
 Alpha virt. eigenvalues --   -0.14139  -0.02169   0.10419   0.23813   0.29235
 Alpha virt. eigenvalues --    0.30976   0.39869   0.64127   0.64671   0.64735
 Alpha virt. eigenvalues --    0.76912   0.77215   0.91440   0.93331   0.95511
 Alpha virt. eigenvalues --    0.99260   1.01692   1.06232   1.27582   1.28603
 Alpha virt. eigenvalues --    1.73426   1.73538   1.74893   1.76203   1.88878
 Alpha virt. eigenvalues --    1.91888   2.03447   2.07455   2.62017   2.67168
 Alpha virt. eigenvalues --    3.54607   3.60816   3.91556
          Condensed to atoms (all electrons):
               1          2          3
     1  S   14.814118   0.189071   0.189071
     2  O    0.189071   8.224188  -0.009390
     3  O    0.189071  -0.009390   8.224188
 Mulliken charges:
               1
     1  S    0.807740
     2  O   -0.403870
     3  O   -0.403870
 Sum of Mulliken charges =   0.00000
 Mulliken charges with hydrogens summed into heavy atoms:
               1
     1  S    0.807740
     2  O   -0.403870
     3  O   -0.403870
 Electronic spatial extent (au):  <R**2>=            171.2467
 Charge=              0.0000 electrons
 Dipole moment (field-independent basis, Debye):
    X=              0.0000    Y=             -0.0000    Z=              1.0745  Tot=              1.0745
 Quadrupole moment (field-independent basis, Debye-Ang):
   XX=            -20.8669   YY=            -27.2293   ZZ=            -22.6070
   XY=             -0.0000   XZ=             -0.0000   YZ=             -0.0000
 Traceless Quadrupole moment (field-independent basis, Debye-Ang):
   XX=              2.7009   YY=             -3.6616   ZZ=              0.9607
   XY=             -0.0000   XZ=             -0.0000   YZ=             -0.0000
 Octapole moment (field-independent basis, Debye-Ang**2):
  XXX=              0.0000  YYY=             -0.0000  ZZZ=             -0.8481  XYY=              0.0000
  XXY=              0.0000  XXZ=             -0.2487  XZZ=              0.0000  YZZ=              0.0000
  YYZ=              1.6532  XYZ=              0.0000
 Hexadecapole moment (field-independent basis, Debye-Ang**3):
 XXXX=            -18.5757 YYYY=           -149.6669 ZZZZ=            -33.2126 XXXY=             -0.0000
 XXXZ=             -0.0000 YYYX=             -0.0000 YYYZ=              0.0000 ZZZX=             -0.0000
 ZZZY=              0.0000 XXYY=            -26.5082 XXZZ=             -8.5132 YYZZ=            -29.9739
 XXYZ=              0.0000 YYXZ=             -0.0000 ZZXY=             -0.0000
 N-N= 1.025841943735D+02 E-N=-1.504872530617D+03  KE= 5.456900746808D+02
 Symmetry A1   KE= 3.931368214801D+02
 Symmetry A2   KE= 4.566986001345D+00
 Symmetry B1   KE= 3.901652502414D+01
 Symmetry B2   KE= 1.089697421752D+02
 Calling FoFJK, ICntrl=      2127 FMM=F ISym2X=1 I1Cent= 0 IOpClX= 0 NMat=1 NMatS=1 NMatT=0.
 ***** Axes restored to original set *****
 -------------------------------------------------------------------
 Center     Atomic                   Forces (Hartrees/Bohr)
 Number     Number              X              Y              Z
 -------------------------------------------------------------------
      1       16          -0.021708056    0.000000000   -0.009250086
      2        8           0.028789032   -0.000000000   -0.037464733
      3        8          -0.007080976   -0.000000000    0.046714819
 -------------------------------------------------------------------
 Cartesian Forces:  Max     0.046714819 RMS     0.023621160

 GradGradGradGradGradGradGradGradGradGradGradGradGradGradGradGradGradGrad
 Berny optimization.
 FormGI is forming the generalized inverse of G from B-inverse, IUseBI=4.
 Internal  Forces:  Max     0.081605079 RMS     0.056174138
 Search for a local minimum.
 Step number   1 out of a maximum of   20
 All quantities printed in internal units (Hartrees-Bohrs-Radians)
 Mixed Optimization -- RFO/linear search
 Second derivative matrix not updated -- first step.
 The second derivative matrix:
                          R1        R2        A1
           R1           0.76677
           R2           0.00000   0.76677
           A1           0.00000   0.00000   0.25000
 ITU=  0
     Eigenvalues ---    0.25000   0.76677   0.76677
 RFO step:  Lambda=-2.75294699D-02 EMin= 2.50000000D-01
 Linear search not attempted -- first point.
 Maximum step size (   0.300) exceeded in Quadratic search.
    -- Step size scaled by   0.995
 Iteration  1 RMS(Cart)=  0.17007438 RMS(Int)=  0.05321188
 Iteration  2 RMS(Cart)=  0.07724641 RMS(Int)=  0.00233340
 Iteration  3 RMS(Cart)=  0.00197176 RMS(Int)=  0.00000024
 Iteration  4 RMS(Cart)=  0.00000036 RMS(Int)=  0.00000000
 ClnCor:  largest displacement from symmetrization is 1.95D-14 for atom     3.
 Variable       Old X    -DE/DX   Delta X   Delta X   Delta X     New X
                                 (Linear)    (Quad)   (Total)
    R1        2.83459  -0.03746   0.00000  -0.04693  -0.04693   2.78766
    R2        2.83459  -0.03746   0.00000  -0.04693  -0.04693   2.78766
    A1        2.33597  -0.08161   0.00000  -0.29257  -0.29257   2.04340
         Item               Value     Threshold  Converged?
 Maximum Force            0.081605     0.000450     NO 
 RMS     Force            0.056174     0.000300     NO 
 Maximum Displacement     0.256371     0.001800     NO 
 RMS     Displacement     0.247949     0.001200     NO 
 Predicted change in Energy=-1.500321D-02
 GradGradGradGradGradGradGradGradGradGradGradGradGradGradGradGradGradGrad

                          Input orientation:                          
 ---------------------------------------------------------------------
 Center     Atomic      Atomic             Coordinates (Angstroms)
 Number     Number       Type             X           Y           Z
 ---------------------------------------------------------------------
      1         16           0       -0.111562   -0.000000   -0.047538
      2          8           0        0.103461    0.000000    1.411872
      3          8           0        1.089997    0.000000   -0.903324
 ---------------------------------------------------------------------
                    Distance matrix (angstroms):
                    1          2          3
     1  S    0.000000
     2  O    1.475165   0.000000
     3  O    1.475165   2.516622   0.000000
 Stoichiometry    O2S
 Framework group  C2V[C2(S),SGV(O2)]
 Deg. of freedom     2
 Full point group                 C2V     NOp   4
 Largest Abelian subgroup         C2V     NOp   4
 Largest concise Abelian subgroup C2      NOp   2
                         Standard orientation:                         
 ---------------------------------------------------------------------
 Center     Atomic      Atomic             Coordinates (Angstroms)
 Number     Number       Type             X           Y           Z
 ---------------------------------------------------------------------
      1         16           0        0.000000    0.000000    0.384957
      2          8           0        0.000000    1.258311   -0.384957
      3          8           0       -0.000000   -1.258311   -0.384957
 ---------------------------------------------------------------------
 Rotational constants (GHZ):     53.3178227      9.9776734      8.4048290
 Standard basis: 6-31G(d) (6D, 7F)
 There are    21 symmetry adapted cartesian basis functions of A1  symmetry.
 There are     5 symmetry adapted cartesian basis functions of A2  symmetry.
 There are     8 symmetry adapted cartesian basis functions of B1  symmetry.
 There are    15 symmetry adapted cartesian basis functions of B2  symmetry.
 There are    21 symmetry adapted basis functions of A1  symmetry.
 There are     5 symmetry adapted basis functions of A2  symmetry.
 There are     8 symmetry adapted basis functions of B1  symmetry.
 There are    15 symmetry adapted basis functions of B2  symmetry.
    49 basis functions,   108 primitive gaussians,    49 cartesian basis functions
    16 alpha electrons       16 beta electrons
       nuclear repulsion energy       105.2908035552 Hartrees.
 NAtoms=    3 NActive=    3 NUniq=    2 SFac= 2.25D+00 NAtFMM=   60 NAOKFM=F Big=F
 Integral buffers will be    131072 words long.
 Raffenetti 2 integral format.
 Two-electron integral symmetry is turned on.
 One-electron integrals computed using PRISM.
 NBasis=    49 RedAO= T EigKep=  1.41D-02  NBF=    21     5     8    15
 NBsUse=    49 1.00D-06 EigRej= -1.00D+00 NBFU=    21     5     8    15
 Initial guess from the checkpoint file:  "/scratch/webmodemo/webmo-4350/333031/Gau-17712.chk"
 B after Tr=     0.000000    0.000000    0.000000
         Rot=    1.000000   -0.000000    0.000000    0.000000 Ang=   0.00 deg.
 Initial guess orbital symmetries:
       Occupied  (A1) (B2) (A1) (A1) (B2) (B1) (A1) (A1) (B2) (A1)
                 (B2) (B1) (A1) (A2) (B2) (A1)
       Virtual   (A1) (A1) (A1) (A1) (A1) (A1) (A1) (A1) (A1) (A1)
                 (A1) (A1) (A1) (A2) (A2) (A2) (A2) (B1) (B1) (B1)
                 (B1) (B1) (B1) (B2) (B2) (B2) (B2) (B2) (B2) (B2)
                 (B2) (B2) (B2)
 ExpMin= 1.17D-01 ExpMax= 2.19D+04 ExpMxC= 3.30D+03 IAcc=1 IRadAn=         1 AccDes= 0.00D+00
 Harris functional with IExCor=  402 and IRadAn=       1 diagonalized for initial guess.
 HarFok:  IExCor=  402 AccDes= 0.00D+00 IRadAn=         1 IDoV= 1 UseB2=F ITyADJ=14
 ICtDFT=  3500011 ScaDFX=  1.000000  1.000000  1.000000  1.000000
 FoFCou: FMM=F IPFlag=           0 FMFlag=      100000 FMFlg1=           0
         NFxFlg=           0 DoJE=T BraDBF=F KetDBF=T FulRan=T
         wScrn=  0.000000 ICntrl=     500 IOpCl=  0 I1Cent=   200000004 NGrid=           0
         NMat0=    1 NMatS0=      1 NMatT0=    0 NMatD0=    1 NMtDS0=    0 NMtDT0=    0
 Petite list used in FoFCou.
 Keep R1 ints in memory in symmetry-blocked form, NReq=1649947.
 Requested convergence on RMS density matrix=1.00D-08 within 128 cycles.
 Requested convergence on MAX density matrix=1.00D-06.
 Requested convergence on             energy=1.00D-06.
 No special actions if energy rises.
 Integral accuracy reduced to 1.0D-05 until final iterations.
 Initial convergence to 1.0D-05 achieved.  Increase integral accuracy.
 SCF Done:  E(RB3LYP) =  -548.586977759     A.U. after   12 cycles
            NFock= 12  Conv=0.42D-08     -V/T= 2.0050
 Calling FoFJK, ICntrl=      2127 FMM=F ISym2X=1 I1Cent= 0 IOpClX= 0 NMat=1 NMatS=1 NMatT=0.
 ***** Axes restored to original set *****
 -------------------------------------------------------------------
 Center     Atomic                   Forces (Hartrees/Bohr)
 Number     Number              X              Y              Z
 -------------------------------------------------------------------
      1       16           0.018580737    0.000000000    0.007917495
      2        8          -0.006092743   -0.000000000   -0.011462918
      3        8          -0.012487994   -0.000000000    0.003545423
 -------------------------------------------------------------------
 Cartesian Forces:  Max     0.018580737 RMS     0.009098049

 GradGradGradGradGradGradGradGradGradGradGradGradGradGradGradGradGradGrad
 Berny optimization.
 Using GEDIIS/GDIIS optimizer.
 FormGI is forming the generalized inverse of G from B-inverse, IUseBI=4.
 Internal  Forces:  Max     0.012228581 RMS     0.012200886
 Search for a local minimum.
 Step number   2 out of a maximum of   20
 All quantities printed in internal units (Hartrees-Bohrs-Radians)
 Mixed Optimization -- RFO/linear search
 Update second derivatives using D2CorX and points    1    2
 DE= -1.35D-02 DEPred=-1.50D-02 R= 8.98D-01
 TightC=F SS=  1.41D+00  RLast= 3.00D-01 DXNew= 5.0454D-01 9.0000D-01
 Trust test= 8.98D-01 RLast= 3.00D-01 DXMaxT set to 5.05D-01
 The second derivative matrix:
                          R1        R2        A1
           R1           0.73588
           R2          -0.03089   0.73588
           A1          -0.02683  -0.02683   0.32905
 ITU=  1  0
 Use linear search instead of GDIIS.
     Eigenvalues ---    0.32526   0.70878   0.76677
 RFO step:  Lambda=-6.03425802D-04 EMin= 3.25257731D-01
 Quartic linear search produced a step of -0.06790.
 Iteration  1 RMS(Cart)=  0.02211738 RMS(Int)=  0.00028433
 Iteration  2 RMS(Cart)=  0.00033158 RMS(Int)=  0.00000002
 Iteration  3 RMS(Cart)=  0.00000002 RMS(Int)=  0.00000000
 ClnCor:  largest displacement from symmetrization is 6.40D-15 for atom     3.
 Variable       Old X    -DE/DX   Delta X   Delta X   Delta X     New X
                                 (Linear)    (Quad)   (Total)
    R1        2.78766  -0.01223   0.00319  -0.01964  -0.01645   2.77120
    R2        2.78766  -0.01223   0.00319  -0.01964  -0.01645   2.77120
    A1        2.04340   0.01215   0.01987   0.01057   0.03043   2.07383
         Item               Value     Threshold  Converged?
 Maximum Force            0.012229     0.000450     NO 
 RMS     Force            0.012201     0.000300     NO 
 Maximum Displacement     0.027428     0.001800     NO 
 RMS     Displacement     0.021999     0.001200     NO 
 Predicted change in Energy=-4.019261D-04
 GradGradGradGradGradGradGradGradGradGradGradGradGradGradGradGradGradGrad

                          Input orientation:                          
 ---------------------------------------------------------------------
 Center     Atomic      Atomic             Coordinates (Angstroms)
 Number     Number       Type             X           Y           Z
 ---------------------------------------------------------------------
      1         16           0       -0.097047   -0.000000   -0.041353
      2          8           0        0.094607   -0.000000    1.412528
      3          8           0        1.084337    0.000000   -0.910164
 ---------------------------------------------------------------------
                    Distance matrix (angstroms):
                    1          2          3
     1  S    0.000000
     2  O    1.466458   0.000000
     3  O    1.466458   2.524770   0.000000
 Stoichiometry    O2S
 Framework group  C2V[C2(S),SGV(O2)]
 Deg. of freedom     2
 Full point group                 C2V     NOp   4
 Largest Abelian subgroup         C2V     NOp   4
 Largest concise Abelian subgroup C2      NOp   2
                         Standard orientation:                         
 ---------------------------------------------------------------------
 Center     Atomic      Atomic             Coordinates (Angstroms)
 Number     Number       Type             X           Y           Z
 ---------------------------------------------------------------------
      1         16           0        0.000000    0.000000    0.373124
      2          8           0        0.000000    1.262385   -0.373124
      3          8           0       -0.000000   -1.262385   -0.373124
 ---------------------------------------------------------------------
 Rotational constants (GHZ):     56.7531925      9.9133800      8.4392514
 Standard basis: 6-31G(d) (6D, 7F)
 There are    21 symmetry adapted cartesian basis functions of A1  symmetry.
 There are     5 symmetry adapted cartesian basis functions of A2  symmetry.
 There are     8 symmetry adapted cartesian basis functions of B1  symmetry.
 There are    15 symmetry adapted cartesian basis functions of B2  symmetry.
 There are    21 symmetry adapted basis functions of A1  symmetry.
 There are     5 symmetry adapted basis functions of A2  symmetry.
 There are     8 symmetry adapted basis functions of B1  symmetry.
 There are    15 symmetry adapted basis functions of B2  symmetry.
    49 basis functions,   108 primitive gaussians,    49 cartesian basis functions
    16 alpha electrons       16 beta electrons
       nuclear repulsion energy       105.7926217671 Hartrees.
 NAtoms=    3 NActive=    3 NUniq=    2 SFac= 2.25D+00 NAtFMM=   60 NAOKFM=F Big=F
 Integral buffers will be    131072 words long.
 Raffenetti 2 integral format.
 Two-electron integral symmetry is turned on.
 One-electron integrals computed using PRISM.
 NBasis=    49 RedAO= T EigKep=  1.40D-02  NBF=    21     5     8    15
 NBsUse=    49 1.00D-06 EigRej= -1.00D+00 NBFU=    21     5     8    15
 Initial guess from the checkpoint file:  "/scratch/webmodemo/webmo-4350/333031/Gau-17712.chk"
 B after Tr=    -0.000000   -0.000000   -0.000000
         Rot=    1.000000    0.000000   -0.000000   -0.000000 Ang=   0.00 deg.
 Initial guess orbital symmetries:
       Occupied  (A1) (B2) (A1) (A1) (B2) (B1) (A1) (A1) (B2) (A1)
                 (B2) (B1) (A1) (A2) (B2) (A1)
       Virtual   (A1) (A1) (A1) (A1) (A1) (A1) (A1) (A1) (A1) (A1)
                 (A1) (A1) (A1) (A2) (A2) (A2) (A2) (B1) (B1) (B1)
                 (B1) (B1) (B1) (B2) (B2) (B2) (B2) (B2) (B2) (B2)
                 (B2) (B2) (B2)
 ExpMin= 1.17D-01 ExpMax= 2.19D+04 ExpMxC= 3.30D+03 IAcc=1 IRadAn=         1 AccDes= 0.00D+00
 Harris functional with IExCor=  402 and IRadAn=       1 diagonalized for initial guess.
 HarFok:  IExCor=  402 AccDes= 0.00D+00 IRadAn=         1 IDoV= 1 UseB2=F ITyADJ=14
 ICtDFT=  3500011 ScaDFX=  1.000000  1.000000  1.000000  1.000000
 FoFCou: FMM=F IPFlag=           0 FMFlag=      100000 FMFlg1=           0
         NFxFlg=           0 DoJE=T BraDBF=F KetDBF=T FulRan=T
         wScrn=  0.000000 ICntrl=     500 IOpCl=  0 I1Cent=   200000004 NGrid=           0
         NMat0=    1 NMatS0=      1 NMatT0=    0 NMatD0=    1 NMtDS0=    0 NMtDT0=    0
 Petite list used in FoFCou.
 Keep R1 ints in memory in symmetry-blocked form, NReq=1649947.
 Requested convergence on RMS density matrix=1.00D-08 within 128 cycles.
 Requested convergence on MAX density matrix=1.00D-06.
 Requested convergence on             energy=1.00D-06.
 No special actions if energy rises.
 Integral accuracy reduced to 1.0D-05 until final iterations.
 Initial convergence to 1.0D-05 achieved.  Increase integral accuracy.
 SCF Done:  E(RB3LYP) =  -548.587443032     A.U. after   11 cycles
            NFock= 11  Conv=0.41D-08     -V/T= 2.0049
 Calling FoFJK, ICntrl=      2127 FMM=F ISym2X=1 I1Cent= 0 IOpClX= 0 NMat=1 NMatS=1 NMatT=0.
 ***** Axes restored to original set *****
 -------------------------------------------------------------------
 Center     Atomic                   Forces (Hartrees/Bohr)
 Number     Number              X              Y              Z
 -------------------------------------------------------------------
      1       16           0.003906536    0.000000000    0.001664626
      2        8          -0.001008910   -0.000000000   -0.003048528
      3        8          -0.002897627   -0.000000000    0.001383902
 -------------------------------------------------------------------
 Cartesian Forces:  Max     0.003906536 RMS     0.002072434

 GradGradGradGradGradGradGradGradGradGradGradGradGradGradGradGradGradGrad
 Berny optimization.
 Using GEDIIS/GDIIS optimizer.
 FormGI is forming the generalized inverse of G from B-inverse, IUseBI=4.
 Internal  Forces:  Max     0.003154238 RMS     0.002749548
 Search for a local minimum.
 Step number   3 out of a maximum of   20
 All quantities printed in internal units (Hartrees-Bohrs-Radians)
 Mixed Optimization -- RFO/linear search
 Update second derivatives using D2CorX and points    1    2    3
 DE= -4.65D-04 DEPred=-4.02D-04 R= 1.16D+00
 TightC=F SS=  1.41D+00  RLast= 3.83D-02 DXNew= 8.4853D-01 1.1493D-01
 Trust test= 1.16D+00 RLast= 3.83D-02 DXMaxT set to 5.05D-01
 The second derivative matrix:
                          R1        R2        A1
           R1           0.65673
           R2          -0.11003   0.65673
           A1          -0.00260  -0.00260   0.34147
 ITU=  1  1  0
 Use linear search instead of GDIIS.
     Eigenvalues ---    0.34141   0.54677   0.76677
 RFO step:  Lambda=-5.72972416D-06 EMin= 3.41408777D-01
 Quartic linear search produced a step of  0.24440.
 Iteration  1 RMS(Cart)=  0.00416026 RMS(Int)=  0.00000804
 Iteration  2 RMS(Cart)=  0.00001106 RMS(Int)=  0.00000000
 Iteration  3 RMS(Cart)=  0.00000000 RMS(Int)=  0.00000000
 ClnCor:  largest displacement from symmetrization is 1.92D-14 for atom     3.
 Variable       Old X    -DE/DX   Delta X   Delta X   Delta X     New X
                                 (Linear)    (Quad)   (Total)
    R1        2.77120  -0.00315  -0.00402  -0.00165  -0.00567   2.76553
    R2        2.77120  -0.00315  -0.00402  -0.00165  -0.00567   2.76553
    A1        2.07383   0.00167   0.00744  -0.00286   0.00458   2.07841
         Item               Value     Threshold  Converged?
 Maximum Force            0.003154     0.000450     NO 
 RMS     Force            0.002750     0.000300     NO 
 Maximum Displacement     0.005114     0.001800     NO 
 RMS     Displacement     0.004160     0.001200     NO 
 Predicted change in Energy=-2.211531D-05
 GradGradGradGradGradGradGradGradGradGradGradGradGradGradGradGradGradGrad

                          Input orientation:                          
 ---------------------------------------------------------------------
 Center     Atomic      Atomic             Coordinates (Angstroms)
 Number     Number       Type             X           Y           Z
 ---------------------------------------------------------------------
      1         16           0       -0.094341   -0.000000   -0.040200
      2          8           0        0.093600   -0.000000    1.411138
      3          8           0        1.082637    0.000000   -0.909928
 ---------------------------------------------------------------------
                    Distance matrix (angstroms):
                    1          2          3
     1  S    0.000000
     2  O    1.463456   0.000000
     3  O    1.463456   2.523003   0.000000
 Stoichiometry    O2S
 Framework group  C2V[C2(S),SGV(O2)]
 Deg. of freedom     2
 Full point group                 C2V     NOp   4
 Largest Abelian subgroup         C2V     NOp   4
 Largest concise Abelian subgroup C2      NOp   2
                         Standard orientation:                         
 ---------------------------------------------------------------------
 Center     Atomic      Atomic             Coordinates (Angstroms)
 Number     Number       Type             X           Y           Z
 ---------------------------------------------------------------------
      1         16           0        0.000000    0.000000    0.370917
      2          8           0        0.000000    1.261501   -0.370917
      3          8           0       -0.000000   -1.261501   -0.370917
 ---------------------------------------------------------------------
 Rotational constants (GHZ):     57.4303308      9.9272704      8.4641735
 Standard basis: 6-31G(d) (6D, 7F)
 There are    21 symmetry adapted cartesian basis functions of A1  symmetry.
 There are     5 symmetry adapted cartesian basis functions of A2  symmetry.
 There are     8 symmetry adapted cartesian basis functions of B1  symmetry.
 There are    15 symmetry adapted cartesian basis functions of B2  symmetry.
 There are    21 symmetry adapted basis functions of A1  symmetry.
 There are     5 symmetry adapted basis functions of A2  symmetry.
 There are     8 symmetry adapted basis functions of B1  symmetry.
 There are    15 symmetry adapted basis functions of B2  symmetry.
    49 basis functions,   108 primitive gaussians,    49 cartesian basis functions
    16 alpha electrons       16 beta electrons
       nuclear repulsion energy       105.9915177748 Hartrees.
 NAtoms=    3 NActive=    3 NUniq=    2 SFac= 2.25D+00 NAtFMM=   60 NAOKFM=F Big=F
 Integral buffers will be    131072 words long.
 Raffenetti 2 integral format.
 Two-electron integral symmetry is turned on.
 One-electron integrals computed using PRISM.
 NBasis=    49 RedAO= T EigKep=  1.40D-02  NBF=    21     5     8    15
 NBsUse=    49 1.00D-06 EigRej= -1.00D+00 NBFU=    21     5     8    15
 Initial guess from the checkpoint file:  "/scratch/webmodemo/webmo-4350/333031/Gau-17712.chk"
 B after Tr=     0.000000    0.000000    0.000000
         Rot=    1.000000    0.000000   -0.000000    0.000000 Ang=   0.00 deg.
 Initial guess orbital symmetries:
       Occupied  (A1) (B2) (A1) (A1) (B2) (B1) (A1) (A1) (B2) (A1)
                 (B2) (B1) (A1) (A2) (B2) (A1)
       Virtual   (A1) (A1) (A1) (A1) (A1) (A1) (A1) (A1) (A1) (A1)
                 (A1) (A1) (A1) (A2) (A2) (A2) (A2) (B1) (B1) (B1)
                 (B1) (B1) (B1) (B2) (B2) (B2) (B2) (B2) (B2) (B2)
                 (B2) (B2) (B2)
 Keep R1 ints in memory in symmetry-blocked form, NReq=1649947.
 Requested convergence on RMS density matrix=1.00D-08 within 128 cycles.
 Requested convergence on MAX density matrix=1.00D-06.
 Requested convergence on             energy=1.00D-06.
 No special actions if energy rises.
 SCF Done:  E(RB3LYP) =  -548.587463858     A.U. after    8 cycles
            NFock=  8  Conv=0.37D-08     -V/T= 2.0049
 Calling FoFJK, ICntrl=      2127 FMM=F ISym2X=1 I1Cent= 0 IOpClX= 0 NMat=1 NMatS=1 NMatT=0.
 ***** Axes restored to original set *****
 -------------------------------------------------------------------
 Center     Atomic                   Forces (Hartrees/Bohr)
 Number     Number              X              Y              Z
 -------------------------------------------------------------------
      1       16          -0.000112332    0.000000000   -0.000047866
      2        8          -0.000047707   -0.000000000    0.000267701
      3        8           0.000160039   -0.000000000   -0.000219835
 -------------------------------------------------------------------
 Cartesian Forces:  Max     0.000267701 RMS     0.000134491

 GradGradGradGradGradGradGradGradGradGradGradGradGradGradGradGradGradGrad
 Berny optimization.
 Using GEDIIS/GDIIS optimizer.
 FormGI is forming the generalized inverse of G from B-inverse, IUseBI=4.
 Internal  Forces:  Max     0.000259358 RMS     0.000248711
 Search for a local minimum.
 Step number   4 out of a maximum of   20
 All quantities printed in internal units (Hartrees-Bohrs-Radians)
 Mixed Optimization -- En-DIIS/RFO-DIIS
 Update second derivatives using D2CorX and points    1    2    3    4
 DE= -2.08D-05 DEPred=-2.21D-05 R= 9.42D-01
 TightC=F SS=  1.41D+00  RLast= 9.24D-03 DXNew= 8.4853D-01 2.7709D-02
 Trust test= 9.42D-01 RLast= 9.24D-03 DXMaxT set to 5.05D-01
 The second derivative matrix:
                          R1        R2        A1
           R1           0.68458
           R2          -0.08219   0.68458
           A1           0.00084   0.00084   0.31714
 ITU=  1  1  1  0
 Use linear search instead of GDIIS.
     Eigenvalues ---    0.31714   0.60240   0.76677
 RFO step:  Lambda=-3.03632188D-07 EMin= 3.17137559D-01
 Quartic linear search produced a step of -0.04174.
 Iteration  1 RMS(Cart)=  0.00076920 RMS(Int)=  0.00000015
 Iteration  2 RMS(Cart)=  0.00000013 RMS(Int)=  0.00000000
 ClnCor:  largest displacement from symmetrization is 6.31D-15 for atom     3.
 Variable       Old X    -DE/DX   Delta X   Delta X   Delta X     New X
                                 (Linear)    (Quad)   (Total)
    R1        2.76553   0.00026   0.00024   0.00019   0.00043   2.76596
    R2        2.76553   0.00026   0.00024   0.00019   0.00043   2.76596
    A1        2.07841   0.00023  -0.00019   0.00090   0.00071   2.07912
         Item               Value     Threshold  Converged?
 Maximum Force            0.000259     0.000450     YES
 RMS     Force            0.000249     0.000300     YES
 Maximum Displacement     0.000882     0.001800     YES
 RMS     Displacement     0.000769     0.001200     YES
 Predicted change in Energy=-1.916161D-07
 Optimization completed.
    -- Stationary point found.
                           ----------------------------
                           !   Optimized Parameters   !
                           ! (Angstroms and Degrees)  !
 --------------------------                            --------------------------
 ! Name  Definition              Value          Derivative Info.                !
 --------------------------------------------------------------------------------
 ! R1    R(1,2)                  1.4635         -DE/DX =    0.0003              !
 ! R2    R(1,3)                  1.4635         -DE/DX =    0.0003              !
 ! A1    A(2,1,3)              119.0841         -DE/DX =    0.0002              !
 --------------------------------------------------------------------------------
 GradGradGradGradGradGradGradGradGradGradGradGradGradGradGradGradGradGrad

                          Input orientation:                          
 ---------------------------------------------------------------------
 Center     Atomic      Atomic             Coordinates (Angstroms)
 Number     Number       Type             X           Y           Z
 ---------------------------------------------------------------------
      1         16           0       -0.094341   -0.000000   -0.040200
      2          8           0        0.093600   -0.000000    1.411138
      3          8           0        1.082637    0.000000   -0.909928
 ---------------------------------------------------------------------
                    Distance matrix (angstroms):
                    1          2          3
     1  S    0.000000
     2  O    1.463456   0.000000
     3  O    1.463456   2.523003   0.000000
 Stoichiometry    O2S
 Framework group  C2V[C2(S),SGV(O2)]
 Deg. of freedom     2
 Full point group                 C2V     NOp   4
 Largest Abelian subgroup         C2V     NOp   4
 Largest concise Abelian subgroup C2      NOp   2
                         Standard orientation:                         
 ---------------------------------------------------------------------
 Center     Atomic      Atomic             Coordinates (Angstroms)
 Number     Number       Type             X           Y           Z
 ---------------------------------------------------------------------
      1         16           0       -0.000000    0.000000    0.370917
      2          8           0       -0.000000    1.261501   -0.370917
      3          8           0       -0.000000   -1.261501   -0.370917
 ---------------------------------------------------------------------
 Rotational constants (GHZ):     57.4303308      9.9272704      8.4641735

 **********************************************************************

            Population analysis using the SCF density.

 **********************************************************************

 Orbital symmetries:
       Occupied  (A1) (B2) (A1) (A1) (B2) (B1) (A1) (A1) (B2) (A1)
                 (B2) (B1) (A1) (A2) (B2) (A1)
       Virtual   (B1) (A1) (B2) (A1) (B1) (A1) (B2) (B1) (A2) (A1)
                 (A1) (B2) (A2) (A1) (B2) (B1) (A1) (B2) (B2) (A1)
                 (A2) (B1) (B2) (A1) (B2) (B1) (A2) (A1) (A1) (B2)
                 (A1) (B2) (A1)
 The electronic state is 1-A1.
 Alpha  occ. eigenvalues --  -89.08312 -19.21141 -19.21140  -8.12305  -6.08684
 Alpha  occ. eigenvalues --   -6.08670  -6.08151  -1.13831  -1.04705  -0.64394
 Alpha  occ. eigenvalues --   -0.49078  -0.48964  -0.48741  -0.36622  -0.35414
 Alpha  occ. eigenvalues --   -0.33018
 Alpha virt. eigenvalues --   -0.13288   0.04755   0.06800   0.23847   0.28659
 Alpha virt. eigenvalues --    0.32733   0.39496   0.65022   0.65452   0.65461
 Alpha virt. eigenvalues --    0.76730   0.78949   0.92174   0.94272   0.99029
 Alpha virt. eigenvalues --    0.99170   1.02732   1.13884   1.24196   1.29473
 Alpha virt. eigenvalues --    1.74005   1.74806   1.75597   1.77055   1.85658
 Alpha virt. eigenvalues --    1.96864   2.02320   2.18667   2.63530   2.76131
 Alpha virt. eigenvalues --    3.55821   3.58264   3.89236
          Condensed to atoms (all electrons):
               1          2          3
     1  S   14.666230   0.257605   0.257605
     2  O    0.257605   8.188862  -0.037186
     3  O    0.257605  -0.037186   8.188862
 Mulliken charges:
               1
     1  S    0.818561
     2  O   -0.409281
     3  O   -0.409281
 Sum of Mulliken charges =   0.00000
 Mulliken charges with hydrogens summed into heavy atoms:
               1
     1  S    0.818561
     2  O   -0.409281
     3  O   -0.409281
 Electronic spatial extent (au):  <R**2>=            158.5080
 Charge=             -0.0000 electrons
 Dipole moment (field-independent basis, Debye):
    X=              0.0000    Y=              0.0000    Z=              1.7779  Tot=              1.7779
 Quadrupole moment (field-independent basis, Debye-Ang):
   XX=            -20.5949   YY=            -26.7704   ZZ=            -22.3870
   XY=             -0.0000   XZ=             -0.0000   YZ=              0.0000
 Traceless Quadrupole moment (field-independent basis, Debye-Ang):
   XX=              2.6559   YY=             -3.5196   ZZ=              0.8637
   XY=             -0.0000   XZ=             -0.0000   YZ=              0.0000
 Octapole moment (field-independent basis, Debye-Ang**2):
  XXX=              0.0000  YYY=              0.0000  ZZZ=             -0.5668  XYY=              0.0000
  XXY=              0.0000  XXZ=             -0.1192  XZZ=              0.0000  YZZ=             -0.0000
  YYZ=              1.5386  XYZ=              0.0000
 Hexadecapole moment (field-independent basis, Debye-Ang**3):
 XXXX=            -18.0030 YYYY=           -129.5689 ZZZZ=            -39.4604 XXXY=             -0.0000
 XXXZ=             -0.0000 YYYX=             -0.0000 YYYZ=              0.0000 ZZZX=             -0.0000
 ZZZY=              0.0000 XXYY=            -23.1341 XXZZ=             -9.3878 YYZZ=            -27.1290
 XXYZ=             -0.0000 YYXZ=             -0.0000 ZZXY=             -0.0000
 N-N= 1.059915177748D+02 E-N=-1.511933448339D+03  KE= 5.459064563492D+02
 Symmetry A1   KE= 3.930941761150D+02
 Symmetry A2   KE= 4.601120144180D+00
 Symmetry B1   KE= 3.901952942631D+01
 Symmetry B2   KE= 1.091916306637D+02
 B after Tr=     0.044570    0.000000    0.018992
         Rot=    1.000000    0.000000   -0.000000    0.000000 Ang=   0.00 deg.
 Final structure in terms of initial Z-matrix:
 S
 O,1,B1
 O,1,B2,2,A1
      Variables:
 B1=1.4634564
 B2=1.4634564
 A1=119.08407472
 1\1\GINC-BUCHNER\FOpt\RB3LYP\6-31G(d)\O2S1\WEBMODEMO\13-Oct-2017\0\\#N
  B3LYP/6-31G(d) OPT Geom=Connectivity\\O2S\\0,1\S,-0.0943410019,0.,-0.
 0401999347\O,0.0936004982,0.,1.4111382865\O,1.0826372062,0.,-0.9099280
 173\\Version=EM64L-G09RevE.01\State=1-A1\HF=-548.5874639\RMSD=3.676e-0
 9\RMSF=1.345e-04\Dipole=-0.6435053,0.,-0.274206\Quadrupole=0.1413688,1
 .9745735,-2.1159423,0.,1.1752655,0.\PG=C02V [C2(S1),SGV(O2)]\\@


 SOME PEOPLE TRY TO PULL THE WOOL OVER YOUR EYES
 USING THE WRONG YARN.
 Job cpu time:       0 days  0 hours  0 minutes  6.5 seconds.
 File lengths (MBytes):  RWF=      5 Int=      0 D2E=      0 Chk=      1 Scr=      1
 Normal termination of Gaussian 09 at Fri Oct 13 15:50:33 2017.
