
 Distributed Data Interface kickoff program.
 Initiating 1 compute processes on 1 nodes to run the following command:
 /usr/local/gamess-141205/gamess.00.x /home/webmodemo/webmo/guest/344633/input 

          ******************************************************
          *         GAMESS VERSION =  5 DEC 2014 (R1)          *
          *             FROM IOWA STATE UNIVERSITY             *
          * M.W.SCHMIDT, K.K.BALDRIDGE, J.A.BOATZ, S.T.ELBERT, *
          *   M.S.GORDON, J.H.JENSEN, S.KOSEKI, N.MATSUNAGA,   *
          *          K.A.NGUYEN, S.J.SU, T.L.WINDUS,           *
          *       TOGETHER WITH M.DUPUIS, J.A.MONTGOMERY       *
          *         J.COMPUT.CHEM.  14, 1347-1363(1993)        *
          **************** 64 BIT LINUX VERSION ****************

  SINCE 1993, STUDENTS AND POSTDOCS WORKING AT IOWA STATE UNIVERSITY
  AND ALSO IN THEIR VARIOUS JOBS AFTER LEAVING ISU HAVE MADE IMPORTANT
  CONTRIBUTIONS TO THE CODE:
     IVANA ADAMOVIC, CHRISTINE AIKENS, YURI ALEXEEV, POOJA ARORA,
     ANDREY ASADCHEV, ROB BELL, PRADIPTA BANDYOPADHYAY, JONATHAN BENTZ,
     BRETT BODE, KURT BRORSEN, CALEB CARLIN, GALINA CHABAN, WEI CHEN,
     CHEOL HO CHOI, PAUL DAY, ALBERT DEFUSCO, NUWAN DESILVA, TIM DUDLEY,
     DMITRI FEDOROV, GRAHAM FLETCHER, MARK FREITAG, KURT GLAESEMANN,
     DAN KEMP, GRANT MERRILL, NORIYUKI MINEZAWA, JONATHAN MULLIN,
     TAKESHI NAGATA, SEAN NEDD, HEATHER NETZLOFF, BOSILJKA NJEGIC, RYAN OLSON,
     MIKE PAK, SPENCER PRUITT, LUKE ROSKOP, JIM SHOEMAKER, LYUDMILA SLIPCHENKO,
     TONY SMITH, SAROM SOK, JIE SONG, TETSUYA TAKETSUGU, SIMON WEBB,
     PENG XU, SOOHAENG YOO, FEDERICO ZAHARIEV

  ADDITIONAL CODE HAS BEEN PROVIDED BY COLLABORATORS IN OTHER GROUPS:
     IOWA STATE UNIVERSITY:
          JOE IVANIC, AARON WEST, LAIMUTIS BYTAUTAS, KLAUS RUEDENBERG
     UNIVERSITY OF TOKYO: KIMIHIKO HIRAO, TAKAHITO NAKAJIMA,
          TAKAO TSUNEDA, MUNEAKI KAMIYA, SUSUMU YANAGISAWA,
          KIYOSHI YAGI, MAHITO CHIBA, SEIKEN TOKURA, NAOAKI KAWAKAMI
     UNIVERSITY OF AARHUS: FRANK JENSEN
     UNIVERSITY OF IOWA: VISVALDAS KAIRYS, HUI LI
     NATIONAL INST. OF STANDARDS AND TECHNOLOGY: WALT STEVENS, DAVID GARMER
     UNIVERSITY OF PISA: BENEDETTA MENNUCCI, JACOPO TOMASI
     UNIVERSITY OF MEMPHIS: HENRY KURTZ, PRAKASHAN KORAMBATH
     UNIVERSITY OF ALBERTA: TOBY ZENG, MARIUSZ KLOBUKOWSKI
     UNIVERSITY OF NEW ENGLAND: MARK SPACKMAN
     MIE UNIVERSITY: HIROAKI UMEDA
     NAT. INST. OF ADVANCED INDUSTRIAL SCIENCE AND TECHNOLOGY: KAZUO KITAURA
     MICHIGAN STATE UNIVERSITY:
          KAROL KOWALSKI, MARTA WLOCH, JEFFREY GOUR, JESSE LUTZ,
          WEI LI, PIOTR PIECUCH
     UNIVERSITY OF SILESIA: MONIKA MUSIAL, STANISLAW KUCHARSKI
     FACULTES UNIVERSITAIRES NOTRE-DAME DE LA PAIX:
          OLIVIER QUINET, BENOIT CHAMPAGNE
     UNIVERSITY OF CALIFORNIA - SANTA BARBARA: BERNARD KIRTMAN
     INSTITUTE FOR MOLECULAR SCIENCE:
          KAZUYA ISHIMURA, MICHIO KATOUDA, AND SHIGERU NAGASE
     UNIVERSITY OF NOTRE DAME: ANNA POMOGAEVA, DAN CHIPMAN
     KYUSHU UNIVERSITY:
          HARUYUKI NAKANO,
          FENG LONG GU, JACEK KORCHOWIEC, MARCIN MAKOWSKI, AND YURIKO AOKI,
          HIROTOSHI MORI AND EISAKU MIYOSHI
     PENNSYLVANIA STATE UNIVERSITY:
          TZVETELIN IORDANOV, CHET SWALINA, JONATHAN SKONE,
          SHARON HAMMES-SCHIFFER
     WASEDA UNIVERSITY:
          MASATO KOBAYASHI, TOMOKO AKAMA, TSUGUKI TOUMA,
          TAKESHI YOSHIKAWA, YASUHIRO IKABATA, HIROMI NAKAI
     NANJING UNIVERSITY: SHUHUA LI
     UNIVERSITY OF NEBRASKA:
          PEIFENG SU, DEJUN SI, NANDUN THELLAMUREGE, YALI WANG, HUI LI
     UNIVERSITY OF ZURICH: ROBERTO PEVERATI, KIM BALDRIDGE
     N. COPERNICUS UNIVERSITY AND JACKSON STATE UNIVERSITY:
          MARIA BARYSZ
     UNIVERSITY OF COPENHAGEN: CASPER STEINMANN
     TOKYO INSTITUTE OF TECHNOLOGY: HIROYA NAKATA
     NAGOYA UNIVERSITY: YOSHIO NISHIMOTO, STEPHAN IRLE

 EXECUTION OF GAMESS BEGUN Fri Nov  3 17:04:38 2017

            ECHO OF THE FIRST FEW INPUT CARDS -
 INPUT CARD> $CONTRL SCFTYP=RHF RUNTYP=OPTIMIZE                                             
 INPUT CARD>       ICHARG=0 MULT=1 COORD=ZMTMPC $END                                        
 INPUT CARD> $STATPT NSTEP=100 $END                                                         
 INPUT CARD> $BASIS GBASIS=N31 NGAUSS=6 NDFUNC=1 $END                                       
 INPUT CARD> $DATA                                                                          
 INPUT CARD>C2H3OF                                                                          
 INPUT CARD>C1 1                                                                            
 INPUT CARD>C 0.0000000 0 0.0000000 0 0.0000000 0 0 0 0                                     
 INPUT CARD>C 1.5073632 1 0.0000000 0 0.0000000 0 1 0 0                                     
 INPUT CARD>O 1.1826872 1 124.44649 1 0.0000000 0 2 1 0                                     
 INPUT CARD>H 1.0956862 1 113.80215 1 -179.99576 1 2 1 3                                    
 INPUT CARD>H 1.3514749 1 111.15609 1 0.0153739 1 1 2 3                                     
 INPUT CARD>F 1.0853522 1 109.23203 1 120.96052 1 1 2 3                                     
 INPUT CARD>H 1.0853488 1 109.23022 1 -120.93160 1 1 2 3                                    
 INPUT CARD> $END                                                                           
 INPUT CARD>                                                                                
    1000000 WORDS OF MEMORY AVAILABLE

     BASIS OPTIONS
     -------------
     GBASIS=N31          IGAUSS=       6      POLAR=POPN31  
     NDFUNC=       1     NFFUNC=       0     DIFFSP=       F
     NPFUNC=       0      DIFFS=       F     BASNAM=        


     RUN TITLE
     ---------
 C2H3OF                                                                          

 THE POINT GROUP OF THE MOLECULE IS C1      
 THE ORDER OF THE PRINCIPAL AXIS IS     1

 YOUR FULLY SUBSTITUTED Z-MATRIX IS
 C   
 C      1   1.5073632
 O      2   1.1826872  1  124.4465
 H      2   1.0956862  1  113.8021  3 -179.9958  0
 H      1   1.3514749  2  111.1561  3    0.0154  0
 F      1   1.0853522  2  109.2320  3  120.9605  0
 H      1   1.0853488  2  109.2302  3 -120.9316  0

 THE MOMENTS OF INERTIA ARE (AMU-ANGSTROM**2)
 IXX=    14.656   IYY=    99.302   IZZ=   102.146

 ATOM      ATOMIC                      COORDINATES (BOHR)
           CHARGE         X                   Y                   Z
 C           6.0    -1.2133030347        0.7795176431        0.4987781277
 C           6.0     1.2818653977       -0.5945661178        0.4987634057
 O           8.0     3.1619511880        0.1987968069       -0.4127602463
 H           1.0     1.2195468020       -2.4400179646        1.4355597842
 H           1.0    -1.0222671171        3.0372017230       -0.6797214029
 F           9.0    -2.6189751594       -0.3724807994       -0.4518329189
 H           1.0    -1.8260697655        1.0671765027        2.4348615075

          INTERNUCLEAR DISTANCES (ANGS.)
          ------------------------------

                1 C          2 C          3 O          4 H          5 H     

   1 C       0.0000000    1.5073632 *  2.3848809 *  2.1922075 *  1.3514749 *
   2 C       1.5073632 *  0.0000000    1.1826872 *  1.0956862 *  2.3598927 *
   3 O       2.3848809 *  1.1826872 *  0.0000000    1.9907593 *  2.6793041 *
   4 H       2.1922075 *  1.0956862 *  1.9907593 *  0.0000000    3.3258308  
   5 H       1.3514749 *  2.3598927 *  2.6793041 *  3.3258308    0.0000000  
   6 F       1.0853522 *  2.1278922 *  3.0741051    2.5140772 *  1.9960117 *
   7 H       1.0853488 *  2.1278668 *  3.0739408    2.5142768 *  1.9960384 *

                6 F          7 H     

   1 C       1.0853522 *  1.0853488 *
   2 C       2.1278922 *  2.1278668 *
   3 O       3.0741051    3.0739408  
   4 H       2.5140772 *  2.5142768 *
   5 H       1.9960117 *  1.9960384 *
   6 F       0.0000000    1.7578179 *
   7 H       1.7578179 *  0.0000000  

  * ... LESS THAN  3.000


     ATOMIC BASIS SET
     ----------------
 THE CONTRACTED PRIMITIVE FUNCTIONS HAVE BEEN UNNORMALIZED
 THE CONTRACTED BASIS FUNCTIONS ARE NOW NORMALIZED TO UNITY

  SHELL TYPE  PRIMITIVE        EXPONENT          CONTRACTION COEFFICIENT(S)

 C         

      1   S       1          3047.5248800    0.001834737132
      1   S       2           457.3695180    0.014037322813
      1   S       3           103.9486850    0.068842622264
      1   S       4            29.2101553    0.232184443216
      1   S       5             9.2866630    0.467941348435
      1   S       6             3.1639270    0.362311985337

      2   L       7             7.8682723   -0.119332419775    0.068999066591
      2   L       8             1.8812885   -0.160854151696    0.316423960957
      2   L       9             0.5442493    1.143456437840    0.744308290898

      3   L      10             0.1687145    1.000000000000    1.000000000000

      4   D      11             0.8000000    1.000000000000

 C         

      5   S      12          3047.5248800    0.001834737132
      5   S      13           457.3695180    0.014037322813
      5   S      14           103.9486850    0.068842622264
      5   S      15            29.2101553    0.232184443216
      5   S      16             9.2866630    0.467941348435
      5   S      17             3.1639270    0.362311985337

      6   L      18             7.8682723   -0.119332419775    0.068999066591
      6   L      19             1.8812885   -0.160854151696    0.316423960957
      6   L      20             0.5442493    1.143456437840    0.744308290898

      7   L      21             0.1687145    1.000000000000    1.000000000000

      8   D      22             0.8000000    1.000000000000

 O         

      9   S      23          5484.6716600    0.001831074430
      9   S      24           825.2349460    0.013950172200
      9   S      25           188.0469580    0.068445078098
      9   S      26            52.9645000    0.232714335992
      9   S      27            16.8975704    0.470192897984
      9   S      28             5.7996353    0.358520852987

     10   L      29            15.5396162   -0.110777549525    0.070874268231
     10   L      30             3.5999336   -0.148026262701    0.339752839147
     10   L      31             1.0137618    1.130767015354    0.727158577316

     11   L      32             0.2700058    1.000000000000    1.000000000000

     12   D      33             0.8000000    1.000000000000

 H         

     13   S      34            18.7311370    0.033494604338
     13   S      35             2.8253944    0.234726953484
     13   S      36             0.6401217    0.813757326146

     14   S      37             0.1612778    1.000000000000

 H         

     15   S      38            18.7311370    0.033494604338
     15   S      39             2.8253944    0.234726953484
     15   S      40             0.6401217    0.813757326146

     16   S      41             0.1612778    1.000000000000

 F         

     17   S      42          7001.7130900    0.001819616901
     17   S      43          1051.3660900    0.013916079607
     17   S      44           239.2856900    0.068405324535
     17   S      45            67.3974453    0.233185760119
     17   S      46            21.5199573    0.471267439240
     17   S      47             7.4031013    0.356618546182

     18   L      48            20.8479528   -0.108506975109    0.071628724237
     18   L      49             4.8083083   -0.146451658147    0.345912102697
     18   L      50             1.3440699    1.128688581135    0.722469956367

     19   L      51             0.3581514    1.000000000000    1.000000000000

     20   D      52             0.8000000    1.000000000000

 H         

     21   S      53            18.7311370    0.033494604338
     21   S      54             2.8253944    0.234726953484
     21   S      55             0.6401217    0.813757326146

     22   S      56             0.1612778    1.000000000000

 TOTAL NUMBER OF BASIS SET SHELLS             =   22
 NUMBER OF CARTESIAN GAUSSIAN BASIS FUNCTIONS =   66
 NUMBER OF ELECTRONS                          =   32
 CHARGE OF MOLECULE                           =    0
 SPIN MULTIPLICITY                            =    1
 NUMBER OF OCCUPIED ORBITALS (ALPHA)          =   16
 NUMBER OF OCCUPIED ORBITALS (BETA )          =   16
 TOTAL NUMBER OF ATOMS                        =    7
 THE NUCLEAR REPULSION ENERGY IS      122.0840146221

     $CONTRL OPTIONS
     ---------------
 SCFTYP=RHF          RUNTYP=OPTIMIZE     EXETYP=RUN     
 MPLEVL=       0     CITYP =NONE         CCTYP =NONE         VBTYP =NONE    
 DFTTYP=NONE         TDDFT =NONE    
 MULT  =       1     ICHARG=       0     NZVAR =       0     COORD =ZMTMPC  
 PP    =NONE         RELWFN=NONE         LOCAL =NONE         NUMGRD=       F
 ISPHER=      -1     NOSYM =       0     MAXIT =      30     UNITS =ANGS    
 PLTORB=       F     MOLPLT=       F     AIMPAC=       F     FRIEND=        
 NPRINT=       7     IREST =       0     GEOM  =INPUT   
 NORMF =       0     NORMP =       0     ITOL  =      20     ICUT  =       9
 INTTYP=BEST         GRDTYP=BEST         QMTTOL= 1.0E-06

     $SYSTEM OPTIONS
     ---------------
  REPLICATED MEMORY=     1000000 WORDS (ON EVERY NODE).
 DISTRIBUTED MEMDDI=           0 MILLION WORDS IN AGGREGATE,
 MEMDDI DISTRIBUTED OVER   1 PROCESSORS IS           0 WORDS/PROCESSOR.
 TOTAL MEMORY REQUESTED ON EACH PROCESSOR=     1000000 WORDS.
 TIMLIM=      525600.00 MINUTES, OR     365.0 DAYS.
 PARALL= F  BALTYP=  DLB     KDIAG=    0  COREFL= F
 MXSEQ2=     300 MXSEQ3=     150  mem10=         0

          ----------------
          PROPERTIES INPUT
          ----------------

     MOMENTS            FIELD           POTENTIAL          DENSITY
 IEMOM =       1   IEFLD =       0   IEPOT =       0   IEDEN =       0
 WHERE =COMASS     WHERE =NUCLEI     WHERE =NUCLEI     WHERE =NUCLEI  
 OUTPUT=BOTH       OUTPUT=BOTH       OUTPUT=BOTH       OUTPUT=BOTH    
 IEMINT=       0   IEFINT=       0                     IEDINT=       0
                                                       MORB  =       0
          EXTRAPOLATION IN EFFECT
          SOSCF IN EFFECT
 ORBITAL PRINTING OPTION: NPREO=     1    66     2     1

     -------------------------------
     INTEGRAL TRANSFORMATION OPTIONS
     -------------------------------
     NWORD  =            0
     CUTOFF = 1.0E-09     MPTRAN =       0
     DIRTRF =       F     AOINTS =DUP     

          ----------------------
          INTEGRAL INPUT OPTIONS
          ----------------------
 NOPK  =       1 NORDER=       0 SCHWRZ=       T

   --- ENCODED Z MATRIX ---
 COORD  TYPE   I   J   K   L   M   N
    1      1    2   1
    2      1    3   2
    3      2    3   2   1
    4      1    4   2
    5      2    4   2   1
    6      3    4   2   1   3
    7      1    5   1
    8      2    5   1   2
    9      3    5   1   2   3
   10      1    6   1
   11      2    6   1   2
   12      3    6   1   2   3
   13      1    7   1
   14      2    7   1   2
   15      3    7   1   2   3

 THE DETERMINANT OF THE G MATRIX IS 10**(   -10)

     ------------------------------------------
     THE POINT GROUP IS C1 , NAXIS= 1, ORDER= 1
     ------------------------------------------

     DIMENSIONS OF THE SYMMETRY SUBSPACES ARE
 A   =   66

 ..... DONE SETTING UP THE RUN .....
 STEP CPU TIME =     0.01 TOTAL CPU TIME =        0.0 (    0.0 MIN)
 TOTAL WALL CLOCK TIME=        0.0 SECONDS, CPU UTILIZATION IS 100.00%


          -----------------------------
          STATIONARY POINT LOCATION RUN
          -----------------------------

 OBTAINING INITIAL HESSIAN, HESS=GUESS   
 CARTESIAN COORDINATE OPTIMIZATION USING BADGER'S RULE FORCE CONSTANT GUESS

          PARAMETERS CONTROLLING GEOMETRY SEARCH ARE
          METHOD =QA                  UPHESS =BFGS    
          NNEG   =         0          NFRZ   =         0
          NSTEP  =       100          IFOLOW =         1
          HESS   =GUESS               RESTAR =         F
          IHREP  =         0          HSSEND =         F
          NPRT   =         0          NPUN   =         0
          OPTTOL = 1.000E-04          RMIN   = 1.500E-03
          RMAX   = 1.000E-01          RLIM   = 7.000E-02
          DXMAX  = 3.000E-01          PURIFY =         F
          MOVIE  =         F          TRUPD  =         T
          TRMAX  = 5.000E-01          TRMIN  = 5.000E-02
          ITBMAT =         5          STPT   =         F
          STSTEP = 1.000E-02          PROJCT=          T

 BEGINNING GEOMETRY SEARCH POINT NSERCH=   0 ...

 COORDINATES OF ALL ATOMS ARE (ANGS)
   ATOM   CHARGE       X              Y              Z
 ------------------------------------------------------------
 C           6.0  -0.6420523624   0.4125030021   0.2639420376
 C           6.0   0.6783340050  -0.3146308627   0.2639342471
 O           8.0   1.6732326319   0.1051987475  -0.2184233317
 H           1.0   0.6453564220  -1.2912019946   0.7596655777
 H           1.0  -0.5409605010   1.6072180532  -0.3596931022
 F           9.0  -1.3859020707  -0.1971083648  -0.2390997011
 H           1.0  -0.9663145754   0.5647255261   1.2884733148

 THE CURRENT FULLY SUBSTITUTED Z-MATRIX IS
 C   
 C      1   1.5073632
 O      2   1.1826872  1   124.4464900
 H      2   1.0956862  1   113.8021500  3  -179.9957600  0
 H      1   1.3514749  2   111.1560900  3     0.0153739  0
 F      1   1.0853522  2   109.2320300  3   120.9605200  0
 H      1   1.0853488  2   109.2302200  3  -120.9316000  0

          ********************
          1 ELECTRON INTEGRALS
          ********************
 ...... END OF ONE-ELECTRON INTEGRALS ......
 STEP CPU TIME =     0.00 TOTAL CPU TIME =        0.0 (    0.0 MIN)
 TOTAL WALL CLOCK TIME=        0.0 SECONDS, CPU UTILIZATION IS 100.00%

          -------------
          GUESS OPTIONS
          -------------
          GUESS =HUCKEL            NORB  =       0          NORDER=       0
          MIX   =       F          PRTMO =       F          PUNMO =       F
          TOLZ  = 1.0E-08          TOLE  = 1.0E-05
          SYMDEN=       F          PURIFY=       F

 INITIAL GUESS ORBITALS GENERATED BY HUCKEL   ROUTINE.
 HUCKEL GUESS REQUIRES     39109 WORDS.

 SYMMETRIES FOR INITIAL GUESS ORBITALS FOLLOW.   BOTH SET(S).
    16 ORBITALS ARE OCCUPIED (    4 CORE ORBITALS).
     5=A        6=A        7=A        8=A        9=A       10=A       11=A   
    12=A       13=A       14=A       15=A       16=A       17=A       18=A   
    19=A       20=A       21=A       22=A       23=A       24=A       25=A   
    26=A   
 ...... END OF INITIAL ORBITAL SELECTION ......
 STEP CPU TIME =     0.01 TOTAL CPU TIME =        0.0 (    0.0 MIN)
 TOTAL WALL CLOCK TIME=        0.0 SECONDS, CPU UTILIZATION IS 100.00%

                    ----------------------
                    AO INTEGRAL TECHNOLOGY
                    ----------------------
     S,P,L SHELL ROTATED AXIS INTEGRALS, REPROGRAMMED BY
        KAZUYA ISHIMURA (IMS) AND JOSE SIERRA (SYNSTAR).
     S,P,D,L SHELL ROTATED AXIS INTEGRALS PROGRAMMED BY
        KAZUYA ISHIMURA (INSTITUTE FOR MOLECULAR SCIENCE).
     S,P,D,F,G SHELL TO TOTAL QUARTET ANGULAR MOMENTUM SUM 5,
        ERIC PROGRAM BY GRAHAM FLETCHER (ELORET AND NASA ADVANCED
        SUPERCOMPUTING DIVISION, AMES RESEARCH CENTER).
     S,P,D,F,G,L SHELL GENERAL RYS QUADRATURE PROGRAMMED BY
        MICHEL DUPUIS (PACIFIC NORTHWEST NATIONAL LABORATORY).

          --------------------
          2 ELECTRON INTEGRALS
          --------------------

 THE -PK- OPTION IS OFF, THE INTEGRALS ARE NOT IN SUPERMATRIX FORM.
 STORING   15000 INTEGRALS/RECORD ON DISK, USING 12 BYTES/INTEGRAL.
 TWO ELECTRON INTEGRAL EVALUATION REQUIRES   90649 WORDS OF MEMORY.
 SCHWARZ INEQUALITY OVERHEAD:      2209 INTEGRALS, T=        0.00
 II,JST,KST,LST =  1  1  1  1 NREC =         1 INTLOC =    1
 II,JST,KST,LST =  2  1  1  1 NREC =         1 INTLOC =    2
 II,JST,KST,LST =  3  1  1  1 NREC =         1 INTLOC =   34
 II,JST,KST,LST =  4  1  1  1 NREC =         1 INTLOC =  214
 II,JST,KST,LST =  5  1  1  1 NREC =         1 INTLOC = 1189
 II,JST,KST,LST =  6  1  1  1 NREC =         1 INTLOC = 3093
 II,JST,KST,LST =  7  1  1  1 NREC =         2 INTLOC =  603
 II,JST,KST,LST =  8  1  1  1 NREC =         3 INTLOC = 7467
 II,JST,KST,LST =  9  1  1  1 NREC =         7 INTLOC = 4305
 II,JST,KST,LST = 10  1  1  1 NREC =         8 INTLOC = 3058
 II,JST,KST,LST = 11  1  1  1 NREC =        13 INTLOC = 1888
 II,JST,KST,LST = 12  1  1  1 NREC =        20 INTLOC = 1450
 II,JST,KST,LST = 13  1  1  1 NREC =        35 INTLOC =  449
 II,JST,KST,LST = 14  1  1  1 NREC =        38 INTLOC = 3829
 II,JST,KST,LST = 15  1  1  1 NREC =        41 INTLOC =10657
 II,JST,KST,LST = 16  1  1  1 NREC =        45 INTLOC = 4735
 II,JST,KST,LST = 17  1  1  1 NREC =        49 INTLOC = 3391
 II,JST,KST,LST = 18  1  1  1 NREC =        52 INTLOC = 2756
 II,JST,KST,LST = 19  1  1  1 NREC =        67 INTLOC =11214
 II,JST,KST,LST = 20  1  1  1 NREC =        90 INTLOC = 9972
 II,JST,KST,LST = 21  1  1  1 NREC =       132 INTLOC = 4252
 II,JST,KST,LST = 22  1  1  1 NREC =       140 INTLOC =11571
 SCHWARZ INEQUALITY TEST SKIPPED        2362 INTEGRAL BLOCKS.
 TOTAL NUMBER OF NONZERO TWO-ELECTRON INTEGRALS =             2235976
        150 INTEGRAL RECORDS WERE STORED ON DISK FILE  8.
  ...... END OF TWO-ELECTRON INTEGRALS .....
 STEP CPU TIME =     0.17 TOTAL CPU TIME =        0.2 (    0.0 MIN)
 TOTAL WALL CLOCK TIME=        0.2 SECONDS, CPU UTILIZATION IS 100.00%

          --------------------------
                 RHF SCF CALCULATION
          --------------------------

     NUCLEAR ENERGY =       122.0840146221
     MAXIT =   30     NPUNCH=    2
     EXTRAP=T  DAMP=F  SHIFT=F  RSTRCT=F  DIIS=F  DEM=F  SOSCF=T
     DENSITY MATRIX CONV=  1.00E-05
     SOSCF WILL OPTIMIZE     800 ORBITAL ROTATIONS, SOGTOL=   0.250
     MEMORY REQUIRED FOR RHF ITERS=     64616 WORDS.

 ITER EX DEM     TOTAL ENERGY        E CHANGE  DENSITY CHANGE     ORB. GRAD
   1  0  0     -250.7273638669  -250.7273638669   0.295706206   0.000000000
          ---------------START SECOND ORDER SCF---------------
   2  1  0     -251.5306876321    -0.8033237652   0.154731715   0.090331289
   3  2  0     -251.5767636077    -0.0460759755   0.076402173   0.065448514
   4  3  0     -251.6156245578    -0.0388609502   0.012744817   0.005391386
   5  4  0     -251.6163791743    -0.0007546165   0.005572380   0.002426614
   6  5  0     -251.6164942380    -0.0001150637   0.001587933   0.000868116
   7  6  0     -251.6165030040    -0.0000087660   0.000661770   0.000220686
   8  7  0     -251.6165043841    -0.0000013801   0.000245156   0.000111759
   9  8  0     -251.6165046527    -0.0000002686   0.000140874   0.000048196
  10  9  0     -251.6165047066    -0.0000000538   0.000055509   0.000018532
  11 10  0     -251.6165047165    -0.0000000099   0.000025819   0.000007241
  12 11  0     -251.6165047183    -0.0000000018   0.000012276   0.000002628
  13 12  0     -251.6165047186    -0.0000000003   0.000002919   0.000000753
  14 13  0     -251.6165047186    -0.0000000000   0.000000602   0.000000155

          -----------------
          DENSITY CONVERGED
          -----------------
     TIME TO FORM FOCK OPERATORS=       0.5 SECONDS (       0.0 SEC/ITER)
     TIME TO SOLVE SCF EQUATIONS=       0.0 SECONDS (       0.0 SEC/ITER)

 FINAL RHF ENERGY IS     -251.6165047186 AFTER  14 ITERATIONS

          ------------
          EIGENVECTORS
          ------------

                      1          2          3          4          5
                  -26.3551   -20.5807   -11.3481   -11.3308    -1.8238
                     A          A          A          A          A   
    1  C  1  S    0.000022   0.000001   0.995552  -0.018832  -0.096401
    2  C  1  S    0.000382   0.000006   0.029967  -0.000456   0.171051
    3  C  1  X    0.000046  -0.000008  -0.002611  -0.000008  -0.125367
    4  C  1  Y    0.000003  -0.000021  -0.002326   0.000198  -0.106992
    5  C  1  Z    0.000019   0.000013  -0.001755   0.000075  -0.083776
    6  C  1  S    0.000322  -0.000171  -0.009661   0.002758   0.050597
    7  C  1  X    0.000661  -0.000046  -0.001745   0.000875  -0.001744
    8  C  1  Y    0.000155   0.000107   0.000022  -0.000969   0.003763
    9  C  1  Z    0.000347  -0.000043  -0.000777   0.000383   0.000146
   10  C  1 XX   -0.000391  -0.000054  -0.001486  -0.000376   0.007871
   11  C  1 YY   -0.000300   0.000049  -0.002049  -0.000274  -0.000594
   12  C  1 ZZ   -0.000215  -0.000014  -0.002035  -0.000079  -0.008023
   13  C  1 XY   -0.000441  -0.000034   0.000920   0.000172   0.031238
   14  C  1 XZ   -0.000336   0.000016   0.000793   0.000002   0.024542
   15  C  1 YZ   -0.000249  -0.000010   0.000777  -0.000058   0.021001
   16  C  2  S    0.000006  -0.000007   0.018497   0.995482  -0.008103
   17  C  2  S    0.000097   0.000349   0.000460   0.027363   0.014505
   18  C  2  X    0.000056  -0.000190  -0.000028   0.000718  -0.014810
   19  C  2  Y   -0.000028  -0.000081  -0.000023   0.000204   0.005331
   20  C  2  Z    0.000018   0.000096   0.000056  -0.000353  -0.002033
   21  C  2  S   -0.000620  -0.000347   0.003340  -0.007633   0.005930
   22  C  2  X    0.000249  -0.000619  -0.001550   0.002587  -0.005440
   23  C  2  Y   -0.000265  -0.000250   0.001213   0.001010  -0.000966
   24  C  2  Z    0.000029   0.000285  -0.000130  -0.001157  -0.000555
   25  C  2 XX   -0.000156  -0.000652  -0.000397  -0.001243   0.005552
   26  C  2 YY   -0.000009  -0.000139  -0.000237  -0.002114   0.000679
   27  C  2 ZZ   -0.000009  -0.000154  -0.000253  -0.002384  -0.000962
   28  C  2 XY    0.000025  -0.000292   0.000097   0.000300  -0.003514
   29  C  2 XZ    0.000003   0.000351  -0.000023  -0.000599  -0.000207
   30  C  2 YZ    0.000025   0.000158  -0.000006  -0.000425  -0.000360
   31  O  3  S    0.000000   0.994673  -0.000021  -0.000421  -0.001462
   32  O  3  S   -0.000004   0.021036  -0.000093   0.000517   0.003664
   33  O  3  X   -0.000015  -0.001392   0.000016  -0.000278  -0.001951
   34  O  3  Y   -0.000008  -0.000599  -0.000032  -0.000119  -0.000241
   35  O  3  Z    0.000015   0.000686  -0.000002   0.000149  -0.000025
   36  O  3  S    0.000107   0.004842   0.000090  -0.002516   0.002551
   37  O  3  X   -0.000084  -0.000109   0.000071   0.001362   0.000928
   38  O  3  Y    0.000004  -0.000051  -0.000182   0.000671  -0.000587
   39  O  3  Z    0.000008   0.000058   0.000117  -0.000744   0.000444
   40  O  3 XX    0.000022  -0.003633  -0.000004   0.000030  -0.000072
   41  O  3 YY   -0.000001  -0.003940  -0.000020   0.000046  -0.000244
   42  O  3 ZZ    0.000013  -0.004117  -0.000091   0.000209   0.000306
   43  O  3 XY    0.000023   0.000118   0.000011  -0.000017  -0.000128
   44  O  3 XZ   -0.000007  -0.000267  -0.000061   0.000099   0.000204
   45  O  3 YZ   -0.000013  -0.000217  -0.000061   0.000146   0.000323
   46  H  4  S    0.000038  -0.000031  -0.000115  -0.000076   0.001643
   47  H  4  S   -0.000090  -0.000174   0.000319   0.002459   0.000128
   48  H  5  S   -0.000062   0.000009   0.000219  -0.000055   0.008518
   49  H  5  S   -0.000088  -0.000047   0.001298   0.000189  -0.003587
   50  F  6  S    0.994229   0.000004  -0.000596  -0.000022  -0.210675
   51  F  6  S    0.018044   0.000030   0.000934  -0.000258   0.499480
   52  F  6  X    0.001090   0.000009   0.000532  -0.000064   0.095099
   53  F  6  Y    0.000851  -0.000000   0.000448   0.000027   0.074246
   54  F  6  Z    0.000733   0.000003   0.000378   0.000033   0.064024
   55  F  6  S    0.009751  -0.000058  -0.003432   0.000621   0.292995
   56  F  6  X   -0.000127  -0.000032  -0.002199   0.000351   0.013659
   57  F  6  Y   -0.000042   0.000031  -0.001983  -0.000000   0.006771
   58  F  6  Z   -0.000082   0.000005  -0.001533  -0.000056   0.009609
   59  F  6 XX   -0.004908  -0.000001  -0.000167  -0.000015   0.033491
   60  F  6 YY   -0.004939   0.000025  -0.000025  -0.000119   0.030520
   61  F  6 ZZ   -0.004956   0.000031   0.000136  -0.000228   0.029806
   62  F  6 XY    0.000065   0.000017  -0.000386  -0.000061   0.004410
   63  F  6 XZ    0.000051  -0.000016  -0.000286   0.000052   0.004447
   64  F  6 YZ    0.000054   0.000017  -0.000315   0.000022   0.003351
   65  H  7  S   -0.000129   0.000020   0.000094  -0.000176   0.017825
   66  H  7  S   -0.000182  -0.000021   0.002073   0.000071  -0.005482

                      6          7          8          9         10
                   -1.4200    -1.0176    -0.9005    -0.8525    -0.8052
                     A          A          A          A          A   
    1  C  1  S   -0.010581   0.146848  -0.037060  -0.004273   0.039581
    2  C  1  S    0.021044  -0.294556   0.076833   0.004537  -0.070857
    3  C  1  X    0.032340  -0.038541  -0.271147  -0.036047  -0.103854
    4  C  1  Y   -0.005749   0.088982   0.057565   0.017064  -0.240345
    5  C  1  Z    0.000890  -0.018687  -0.037600   0.284940  -0.055177
    6  C  1  S    0.004914  -0.218796   0.048457   0.043371  -0.162991
    7  C  1  X    0.006011  -0.037886  -0.029086  -0.019464  -0.007896
    8  C  1  Y    0.005893  -0.007387   0.028901  -0.017660  -0.060796
    9  C  1  Z   -0.005001  -0.019854   0.004971   0.067857   0.010275
   10  C  1 XX    0.006112  -0.004147   0.010122   0.011142  -0.010320
   11  C  1 YY    0.000411  -0.003622  -0.015670  -0.000682   0.018164
   12  C  1 ZZ   -0.000252  -0.001235   0.000499  -0.004348  -0.019821
   13  C  1 XY   -0.005136   0.000859   0.026476   0.000877   0.029815
   14  C  1 XZ   -0.001723  -0.000687   0.014200  -0.024659   0.004474
   15  C  1 YZ   -0.000036  -0.005904   0.002647  -0.016822   0.019922
   16  C  2  S   -0.116409   0.074368   0.094845  -0.015922   0.054359
   17  C  2  S    0.219403  -0.159430  -0.194201   0.032146  -0.116663
   18  C  2  X    0.152378   0.158642   0.114416   0.009563   0.025319
   19  C  2  Y    0.066596  -0.017990   0.042535  -0.035200  -0.028618
   20  C  2  Z   -0.075264  -0.036229  -0.042772   0.055010  -0.029789
   21  C  2  S    0.072530  -0.096012  -0.194061   0.011795  -0.095877
   22  C  2  X   -0.016343   0.032623   0.054654  -0.003296   0.006649
   23  C  2  Y   -0.014584   0.020095   0.017239  -0.015991   0.001742
   24  C  2  Z    0.011820  -0.020602  -0.016015   0.027694  -0.024743
   25  C  2 XX    0.017460  -0.007494   0.001688   0.000080   0.002686
   26  C  2 YY   -0.010492  -0.006863  -0.008111   0.003504  -0.007119
   27  C  2 ZZ   -0.008705   0.003674   0.004503  -0.001447   0.002052
   28  C  2 XY    0.017556   0.013243   0.004535   0.001023   0.004794
   29  C  2 XZ   -0.019715  -0.001740  -0.001666  -0.004534   0.000626
   30  C  2 YZ   -0.008913   0.003344   0.006918   0.000174   0.003627
   31  O  3  S   -0.195884  -0.045836  -0.050110   0.003033  -0.039575
   32  O  3  S    0.433418   0.107353   0.116081  -0.010905   0.090376
   33  O  3  X   -0.122459   0.028478   0.058498   0.011963   0.087736
   34  O  3  Y   -0.050566  -0.011075   0.023541  -0.015907   0.002886
   35  O  3  Z    0.058853  -0.003533  -0.022436   0.027312  -0.047941
   36  O  3  S    0.376815   0.101956   0.141564   0.008548   0.133291
   37  O  3  X   -0.041755   0.019168   0.028819   0.000543   0.045724
   38  O  3  Y   -0.016045  -0.003514   0.011946  -0.008027  -0.001205
   39  O  3  Z    0.019483  -0.002239  -0.012586   0.015657  -0.021946
   40  O  3 XX    0.013006  -0.000615  -0.001671  -0.003434  -0.004681
   41  O  3 YY    0.000372   0.003552   0.001197  -0.000815   0.002163
   42  O  3 ZZ    0.001777   0.001286   0.000510   0.000517  -0.001051
   43  O  3 XY    0.007480   0.000632  -0.002801   0.000284  -0.000983
   44  O  3 XZ   -0.008382  -0.000009   0.001742  -0.001734   0.004217
   45  O  3 YZ   -0.003234  -0.001660   0.000516  -0.001007   0.000132
   46  H  4  S    0.027740  -0.054444  -0.100305   0.039281  -0.044214
   47  H  4  S   -0.011882  -0.001579  -0.038278   0.018596  -0.006284
   48  H  5  S    0.003317  -0.043224   0.027824  -0.028265  -0.088733
   49  H  5  S   -0.001094  -0.006124   0.013237  -0.015604  -0.052881
   50  F  6  S    0.008370  -0.085505   0.036803  -0.011933   0.010174
   51  F  6  S   -0.019983   0.192666  -0.077993   0.029652  -0.032694
   52  F  6  X    0.006232  -0.267564  -0.009228  -0.335986   0.357645
   53  F  6  Y   -0.003021  -0.120498   0.406970  -0.180746  -0.233564
   54  F  6  Z   -0.001678  -0.169851   0.203335   0.377004   0.289220
   55  F  6  S   -0.016633   0.309428  -0.179404   0.055176  -0.045859
   56  F  6  X    0.002108  -0.138636  -0.029823  -0.206222   0.222634
   57  F  6  Y    0.000028  -0.059650   0.233478  -0.104872  -0.168096
   58  F  6  Z    0.001009  -0.089071   0.110257   0.247436   0.179172
   59  F  6 XX   -0.000431  -0.006307  -0.013377  -0.018205   0.011500
   60  F  6 YY   -0.002103   0.007036   0.015260  -0.003859  -0.023447
   61  F  6 ZZ   -0.001135   0.003324   0.003003   0.024565   0.002262
   62  F  6 XY    0.000245  -0.008906   0.012158  -0.015679  -0.002653
   63  F  6 XZ    0.000121  -0.012269   0.002895   0.009586   0.018054
   64  F  6 YZ   -0.000208  -0.006200   0.014968   0.008583  -0.001085
   65  H  7  S    0.003360  -0.095316   0.041581   0.122268  -0.070285
   66  H  7  S    0.001131  -0.016603   0.017333   0.068074  -0.038121

                     11         12         13         14         15
                   -0.7521    -0.6632    -0.5730    -0.5410    -0.4571
                     A          A          A          A          A   
    1  C  1  S   -0.052537  -0.017995   0.032181   0.015209  -0.018349
    2  C  1  S    0.096865   0.030777  -0.052961  -0.023925   0.019996
    3  C  1  X    0.157516   0.006540   0.103600   0.005149   0.098757
    4  C  1  Y    0.067592   0.045269  -0.136282  -0.077662   0.172599
    5  C  1  Z    0.098226   0.062121  -0.145524  -0.010536  -0.269461
    6  C  1  S    0.189967   0.071808  -0.153639  -0.088944   0.150766
    7  C  1  X    0.043465   0.000145   0.020918   0.006092   0.046757
    8  C  1  Y    0.004348   0.002643  -0.057333  -0.031590   0.129355
    9  C  1  Z    0.025192   0.024276  -0.061220   0.009168  -0.161049
   10  C  1 XX   -0.008127  -0.012594   0.029002   0.007648   0.001199
   11  C  1 YY    0.005673   0.000234  -0.004838  -0.007038   0.032473
   12  C  1 ZZ    0.010921   0.013579  -0.030646  -0.005371  -0.029329
   13  C  1 XY   -0.013093  -0.009170  -0.005536   0.004259   0.008656
   14  C  1 XZ   -0.017761  -0.000431   0.010962   0.014024  -0.000620
   15  C  1 YZ   -0.006269  -0.002285  -0.005967   0.002958  -0.023088
   16  C  2  S    0.073568   0.036026  -0.039208  -0.007977   0.005171
   17  C  2  S   -0.152129  -0.094178   0.080345   0.015805  -0.006398
   18  C  2  X   -0.139613  -0.170927  -0.270641   0.040427   0.008354
   19  C  2  Y    0.265932  -0.230788   0.003871   0.149409  -0.010663
   20  C  2  Z   -0.075488   0.179660  -0.006348   0.279274   0.041940
   21  C  2  S   -0.170824  -0.000023   0.167322   0.037312  -0.035960
   22  C  2  X   -0.004083  -0.008557  -0.103908   0.028054   0.016402
   23  C  2  Y    0.095137  -0.069371   0.035499   0.098104  -0.021784
   24  C  2  Z   -0.042255   0.043495  -0.013571   0.170035   0.036012
   25  C  2 XX    0.002165  -0.004908  -0.014523   0.010850   0.006147
   26  C  2 YY   -0.009863   0.014441   0.018263   0.012029   0.004719
   27  C  2 ZZ    0.001372   0.003764   0.007619  -0.021647  -0.007799
   28  C  2 XY   -0.004157  -0.013141  -0.002385   0.018259  -0.006866
   29  C  2 XZ    0.002260   0.009612   0.002127   0.022221   0.014004
   30  C  2 YZ    0.012107   0.000113  -0.013789   0.002159   0.001465
   31  O  3  S   -0.044906  -0.069159  -0.012353  -0.001172   0.003083
   32  O  3  S    0.103643   0.157098   0.025011   0.003250  -0.014865
   33  O  3  X    0.034578   0.467997  -0.013918   0.084746   0.139520
   34  O  3  Y    0.232999   0.027372   0.293143   0.280018  -0.086992
   35  O  3  Z   -0.112767  -0.128238  -0.237620   0.385609   0.115613
   36  O  3  S    0.158217   0.303209   0.077855   0.003415   0.017149
   37  O  3  X    0.014653   0.262575  -0.022183   0.061481   0.092280
   38  O  3  Y    0.124855   0.010647   0.185533   0.194801  -0.061675
   39  O  3  Z   -0.058314  -0.068423  -0.157136   0.272675   0.092649
   40  O  3 XX    0.006028  -0.027994   0.006161  -0.012141  -0.011482
   41  O  3 YY   -0.007203   0.008798  -0.006345  -0.012810   0.000611
   42  O  3 ZZ   -0.002703   0.003434  -0.009264   0.024707   0.003207
   43  O  3 XY   -0.014242  -0.008400  -0.010947  -0.021034  -0.000580
   44  O  3 XZ    0.004416   0.013732   0.012327  -0.025355  -0.003886
   45  O  3 YZ    0.008586   0.000314   0.011287  -0.003280  -0.004736
   46  H  4  S   -0.202197   0.122686   0.065716   0.008084   0.005605
   47  H  4  S   -0.105213   0.092151   0.059114   0.007069   0.013178
   48  H  5  S    0.054111   0.016295  -0.055100  -0.056918   0.247364
   49  H  5  S    0.039124   0.020935  -0.037676  -0.052746   0.281450
   50  F  6  S   -0.003031   0.003484  -0.002086  -0.007605   0.002813
   51  F  6  S    0.006345  -0.005947   0.005658   0.011102  -0.005580
   52  F  6  X   -0.004206   0.016455  -0.223549   0.032240  -0.064336
   53  F  6  Y   -0.219863   0.006507   0.193586   0.062482  -0.165161
   54  F  6  Z   -0.072056  -0.148458   0.170109  -0.015258   0.260291
   55  F  6  S    0.030869  -0.012435   0.002821   0.045005  -0.018307
   56  F  6  X    0.012794   0.018132  -0.181526   0.023059  -0.055968
   57  F  6  Y   -0.140001   0.008929   0.152004   0.048833  -0.155852
   58  F  6  Z   -0.040984  -0.107575   0.135138  -0.014810   0.236056
   59  F  6 XX    0.005384   0.002389  -0.006662  -0.001083  -0.000557
   60  F  6 YY   -0.007595   0.003424   0.006373  -0.002714  -0.001570
   61  F  6 ZZ    0.000770  -0.003092   0.002248  -0.004132   0.002209
   62  F  6 XY   -0.005709   0.000749  -0.000005   0.001978  -0.003696
   63  F  6 XZ   -0.000140  -0.003399   0.000582   0.000793   0.003677
   64  F  6 YZ   -0.005516  -0.002299   0.005444  -0.000360  -0.002221
   65  H  7  S    0.080670   0.062498  -0.175314  -0.035912  -0.192225
   66  H  7  S    0.042832   0.042563  -0.144791  -0.036306  -0.208365

                     16         17         18         19         20
                   -0.4146     0.1466     0.2249     0.2672     0.3088
                     A          A          A          A          A   
    1  C  1  S    0.023546  -0.002069  -0.101550   0.030660   0.048353
    2  C  1  S   -0.063603  -0.006088   0.118007  -0.019528  -0.032369
    3  C  1  X   -0.229229   0.021539   0.050703   0.129390   0.009095
    4  C  1  Y    0.176343   0.003665   0.314962  -0.059548   0.131954
    5  C  1  Z    0.008468   0.022762  -0.057578  -0.204308  -0.299480
    6  C  1  S   -0.120586   0.051594   1.355541  -0.590340  -1.200438
    7  C  1  X   -0.091046   0.250422   0.255979   0.267090   0.148430
    8  C  1  Y    0.123682   0.012078   0.739616  -0.510069   0.548083
    9  C  1  Z   -0.022413   0.119860   0.065602  -0.618643  -1.088065
   10  C  1 XX   -0.023586   0.000243   0.002556   0.006024   0.001853
   11  C  1 YY    0.013478  -0.002094  -0.019952  -0.000077  -0.005099
   12  C  1 ZZ    0.011039  -0.005346  -0.004017   0.009459   0.003249
   13  C  1 XY    0.015966   0.013285  -0.001221   0.013202  -0.005885
   14  C  1 XZ   -0.005435   0.026759  -0.005631  -0.000635  -0.000081
   15  C  1 YZ   -0.001240  -0.008308   0.010672   0.005053   0.012016
   16  C  2  S    0.017560   0.008597   0.033478   0.078435  -0.073105
   17  C  2  S   -0.054758  -0.009705  -0.027435  -0.094850   0.027963
   18  C  2  X    0.164150   0.124392   0.060419   0.028712   0.006040
   19  C  2  Y   -0.186970   0.159214   0.027646   0.219146  -0.105770
   20  C  2  Z    0.045152   0.352997  -0.044406  -0.107687   0.087817
   21  C  2  S   -0.076861  -0.210511  -0.473486  -1.293709   1.604704
   22  C  2  X    0.003244   0.220962   0.274502   0.340521   0.043512
   23  C  2  Y   -0.099305   0.181505  -0.000669   0.908039  -0.347621
   24  C  2  Z    0.023618   0.599532  -0.235827  -0.313997   0.419148
   25  C  2 XX   -0.041452  -0.015061  -0.010103   0.001987  -0.015589
   26  C  2 YY    0.029152  -0.007743   0.020705  -0.000245  -0.001579
   27  C  2 ZZ    0.009017   0.020168  -0.000845   0.006366   0.005369
   28  C  2 XY    0.030093  -0.015463  -0.012256  -0.005315  -0.006224
   29  C  2 XZ   -0.000437  -0.021110   0.011159   0.004089   0.017573
   30  C  2 YZ   -0.024693  -0.004798  -0.002694  -0.003602  -0.005124
   31  O  3  S   -0.001147  -0.001460   0.009295   0.009001   0.025966
   32  O  3  S   -0.006210  -0.004243   0.002038   0.010197  -0.041666
   33  O  3  X   -0.236669  -0.099394   0.017022   0.013080   0.060334
   34  O  3  Y    0.378190  -0.155391   0.034076  -0.075531   0.039250
   35  O  3  Z   -0.107879  -0.327069  -0.011632   0.022791  -0.073577
   36  O  3  S    0.050427   0.054229  -0.176633  -0.270643  -0.327868
   37  O  3  X   -0.199365  -0.157003   0.050930   0.105422   0.128174
   38  O  3  Y    0.308304  -0.205552   0.056486  -0.179359   0.118760
   39  O  3  Z   -0.078578  -0.445688   0.010451  -0.009242  -0.189603
   40  O  3 XX    0.007755  -0.000323   0.008962   0.008580   0.000457
   41  O  3 YY   -0.010090  -0.001558   0.007476   0.010039   0.004076
   42  O  3 ZZ   -0.004850  -0.003676   0.006998   0.006418   0.010390
   43  O  3 XY   -0.007125   0.000710  -0.003004  -0.002544  -0.001310
   44  O  3 XZ   -0.001296  -0.000271  -0.002369   0.005621   0.008593
   45  O  3 YZ    0.005353   0.000242   0.001350  -0.002918   0.003758
   46  H  4  S    0.176538   0.011349   0.063234   0.000359  -0.007136
   47  H  4  S    0.234099   0.003301   0.527417   1.754435  -1.235701
   48  H  5  S    0.100251   0.021348  -0.098997  -0.014443  -0.043024
   49  H  5  S    0.157215   0.085523  -1.300924   0.068758  -0.651842
   50  F  6  S   -0.000387  -0.025335  -0.012885   0.006831  -0.009430
   51  F  6  S   -0.002108   0.051867  -0.000579   0.004783  -0.020624
   52  F  6  X    0.149969   0.079364   0.011805  -0.028996   0.006731
   53  F  6  Y   -0.132880  -0.006330  -0.078599   0.029557  -0.069678
   54  F  6  Z   -0.014289   0.008456   0.052536   0.046317   0.105786
   55  F  6  S    0.013114   0.234755   0.205988  -0.159080   0.224787
   56  F  6  X    0.127421   0.070970   0.052187  -0.098430   0.024774
   57  F  6  Y   -0.128119   0.034305  -0.132170   0.036722  -0.108235
   58  F  6  Z   -0.007129   0.021100   0.095879   0.081881   0.255082
   59  F  6 XX   -0.004234  -0.006412  -0.009159   0.005474  -0.008241
   60  F  6 YY   -0.000578   0.000766  -0.007641   0.004828  -0.016878
   61  F  6 ZZ    0.000665   0.000929  -0.014980   0.004690  -0.015570
   62  F  6 XY    0.000183   0.007200   0.004365   0.002930   0.003614
   63  F  6 XZ   -0.000023   0.005284  -0.002028  -0.007910  -0.005523
   64  F  6 YZ   -0.000804  -0.001182   0.005494  -0.006993   0.005128
   65  H  7  S    0.060949  -0.067412  -0.007323  -0.000842  -0.006193
   66  H  7  S    0.099741  -0.213653  -0.663677   1.270710   1.704963

                     21         22         23         24         25
                    0.3808     0.4536     0.4866     0.7182     0.7633
                     A          A          A          A          A   
    1  C  1  S    0.010338   0.021270  -0.100056   0.012589  -0.012761
    2  C  1  S   -0.049323   0.013829   0.049150  -0.284853  -0.006643
    3  C  1  X    0.097071   0.141730   0.155788  -0.708216  -0.064702
    4  C  1  Y   -0.106516   0.049604  -0.052441   0.588764   0.019209
    5  C  1  Z    0.146000  -0.105313  -0.044884   0.110204  -0.044916
    6  C  1  S   -0.127861  -1.653700   2.729284   0.040886   0.338239
    7  C  1  X    1.385462   0.977227   1.492863   0.989880  -0.226979
    8  C  1  Y   -0.189528   1.144925  -1.439845  -0.884596  -0.178570
    9  C  1  Z    0.776917   0.117945  -0.990994  -0.321208  -0.107391
   10  C  1 XX   -0.016593  -0.023055  -0.031340  -0.027432  -0.023051
   11  C  1 YY   -0.013044   0.012938   0.014008  -0.026458   0.034454
   12  C  1 ZZ    0.000219  -0.009222   0.038367   0.009862  -0.003916
   13  C  1 XY    0.005351  -0.017982   0.023612   0.031014  -0.035301
   14  C  1 XZ   -0.012173   0.000138  -0.001449   0.001076  -0.027606
   15  C  1 YZ    0.008587  -0.011489  -0.017202  -0.012914  -0.001209
   16  C  2  S    0.007905   0.024670   0.080994  -0.058707  -0.007210
   17  C  2  S   -0.040682   0.025700   0.025854  -0.138033  -0.003770
   18  C  2  X    0.086105  -0.071151   0.217599   0.055203  -0.297566
   19  C  2  Y   -0.125184  -0.118551  -0.313751  -0.034810  -0.357102
   20  C  2  Z   -0.124949  -0.094804   0.068686  -0.017481  -0.924873
   21  C  2  S    0.227311  -1.404492  -2.641651  -0.342927   0.199047
   22  C  2  X    1.478932  -1.942584   1.111879  -0.404102   0.509616
   23  C  2  Y   -0.262124  -0.892809  -1.468451   0.202096   0.436948
   24  C  2  Z   -0.713872   0.636155   0.790750   0.116480   1.078722
   25  C  2 XX    0.006800  -0.008299  -0.015621  -0.139492   0.006169
   26  C  2 YY    0.010124   0.015069   0.006374  -0.033827  -0.033282
   27  C  2 ZZ   -0.005259  -0.014148  -0.000604   0.038379   0.022337
   28  C  2 XY   -0.001926  -0.007886  -0.015930   0.070530   0.006928
   29  C  2 XZ   -0.003688   0.005692   0.000489   0.008652   0.004200
   30  C  2 YZ    0.009618   0.002124  -0.016369   0.031565  -0.008131
   31  O  3  S    0.062353  -0.089949  -0.037482   0.002918   0.005773
   32  O  3  S   -0.024169   0.018683   0.014734  -0.127012  -0.017676
   33  O  3  X    0.041870  -0.023073  -0.095502   0.121406  -0.038651
   34  O  3  Y    0.068854  -0.044371   0.080417  -0.115468   0.008876
   35  O  3  Z    0.021710   0.071509   0.012887   0.047708  -0.060456
   36  O  3  S   -1.346909   2.215759   0.805315   0.397848  -0.141093
   37  O  3  X    0.377413  -0.629974  -0.594416  -0.007584   0.029081
   38  O  3  Y    0.374898  -0.281764   0.194186  -0.147245  -0.002094
   39  O  3  Z   -0.114811   0.450062  -0.017901   0.055690  -0.125828
   40  O  3 XX    0.009484  -0.014319   0.001662  -0.006897   0.028475
   41  O  3 YY    0.046047  -0.048290  -0.019357  -0.045756   0.013276
   42  O  3 ZZ    0.030622  -0.064794  -0.027692  -0.028975  -0.052260
   43  O  3 XY   -0.019085   0.026446   0.012072   0.008203   0.036377
   44  O  3 XZ    0.018925  -0.030314  -0.006493  -0.004458   0.062986
   45  O  3 YZ    0.012571  -0.009396  -0.020925   0.004709   0.014332
   46  H  4  S    0.005963   0.077784   0.082441  -0.086124  -0.090996
   47  H  4  S   -0.160300  -0.267926  -0.931158   0.021869  -0.025243
   48  H  5  S   -0.027051   0.051234   0.092394   0.044023   0.064500
   49  H  5  S    0.570108  -0.220179  -0.164802   0.147593  -0.056051
   50  F  6  S   -0.071515  -0.066483   0.047277   0.000223   0.007712
   51  F  6  S   -0.011738  -0.036293   0.072203  -0.002597   0.029739
   52  F  6  X   -0.004669  -0.025049  -0.104623  -0.005702   0.023028
   53  F  6  Y    0.096773   0.069190   0.017767   0.039444  -0.071257
   54  F  6  Z    0.024686   0.033752   0.009016   0.034054  -0.061025
   55  F  6  S    1.220515   1.413521  -1.036841  -0.034876  -0.228393
   56  F  6  X    0.136643   0.150535  -0.492122  -0.140566   0.035216
   57  F  6  Y    0.322060   0.216208   0.047393   0.097598  -0.037106
   58  F  6  Z    0.089164   0.262722   0.013176   0.032314  -0.015337
   59  F  6 XX   -0.049850  -0.050159   0.033104  -0.094576   0.023465
   60  F  6 YY   -0.067346  -0.050206   0.063492   0.056605   0.028325
   61  F  6 ZZ   -0.058329  -0.066509   0.083518   0.021763   0.012027
   62  F  6 XY    0.017932   0.016437   0.008467   0.012040   0.017472
   63  F  6 XZ    0.011728   0.024234  -0.007441  -0.027631   0.025658
   64  F  6 YZ    0.017228   0.005047  -0.013389   0.026445   0.005744
   65  H  7  S    0.049147  -0.060880   0.106969   0.099876  -0.051934
   66  H  7  S    0.029133   0.649267   0.437734   0.168176  -0.197931

                     26         27         28         29         30
                    0.8343     0.8557     0.9229     0.9867     1.0251
                     A          A          A          A          A   
    1  C  1  S   -0.022905  -0.025051  -0.004145   0.020242  -0.027151
    2  C  1  S   -0.129450   0.067063  -0.330537   0.081366  -0.288684
    3  C  1  X    0.107515   0.357533  -0.031531   0.133061  -0.290996
    4  C  1  Y    0.324360   0.096899  -0.471011   0.000038  -0.494284
    5  C  1  Z   -0.548183  -0.174346   0.553450   0.075055  -0.517649
    6  C  1  S    1.053459  -1.012904  -0.061204  -0.376564   0.970502
    7  C  1  X   -0.007786  -1.330887  -0.035618  -0.053481  -0.165454
    8  C  1  Y   -0.643633  -0.024118   1.406916   0.062321   0.401351
    9  C  1  Z    1.448443   0.900527  -1.139356  -0.213117   0.901423
   10  C  1 XX   -0.014112  -0.052765  -0.091274   0.024815  -0.135679
   11  C  1 YY    0.052479  -0.030049   0.036940  -0.016814   0.024205
   12  C  1 ZZ   -0.045932   0.014749  -0.043144   0.031579   0.026692
   13  C  1 XY   -0.008124   0.116240   0.051678   0.056984  -0.069825
   14  C  1 XZ    0.068210   0.033010   0.069164  -0.002388  -0.106818
   15  C  1 YZ   -0.043839   0.053758  -0.034068   0.001564  -0.106817
   16  C  2  S   -0.012493   0.002024  -0.015084  -0.048161   0.004225
   17  C  2  S   -0.330008  -0.394061  -0.846263   0.599409   0.332432
   18  C  2  X    0.030557   0.595147   0.241251   0.744825   0.189307
   19  C  2  Y    0.197349  -0.593139  -0.021883   0.446279  -0.316042
   20  C  2  Z    0.042165  -0.008150  -0.069148  -0.425962   0.186217
   21  C  2  S    0.641663   1.563312   1.817214   0.237918  -0.528923
   22  C  2  X    0.615639  -1.025381  -0.906885  -0.563014  -0.151564
   23  C  2  Y   -0.867793   1.820482  -0.467925  -0.492474   1.111384
   24  C  2  Z   -0.254291  -0.592151   0.564818   0.432182  -0.751418
   25  C  2 XX   -0.008762   0.000834  -0.026913  -0.070992   0.104432
   26  C  2 YY   -0.067216  -0.004018  -0.127041   0.073249  -0.033569
   27  C  2 ZZ   -0.015179  -0.037807  -0.036118   0.047799   0.031295
   28  C  2 XY    0.039735  -0.030732   0.027907  -0.092563   0.068459
   29  C  2 XZ   -0.027073  -0.009135  -0.014666   0.086308  -0.006072
   30  C  2 YZ    0.070493   0.009081   0.073919   0.032835  -0.014762
   31  O  3  S    0.007973   0.016558  -0.003815   0.053512   0.007597
   32  O  3  S   -0.026604  -0.063420   0.012151  -0.214756  -0.205814
   33  O  3  X   -0.160167   0.023899  -0.027495   0.169790  -0.073712
   34  O  3  Y    0.164773  -0.139456   0.031469   0.133318  -0.135971
   35  O  3  Z   -0.026751   0.034728   0.002845  -0.095380   0.055066
   36  O  3  S   -0.337616  -0.417332   0.200102   0.123626  -0.001973
   37  O  3  X    0.098879   0.391609  -0.026552   0.526602   0.373373
   38  O  3  Y    0.206609  -0.046139  -0.006893   0.214405   0.042939
   39  O  3  Z   -0.032296  -0.048922  -0.007974  -0.267756  -0.088116
   40  O  3 XX   -0.039406  -0.068674  -0.005276   0.098791  -0.122172
   41  O  3 YY    0.003473   0.023346   0.010178  -0.073786  -0.056774
   42  O  3 ZZ    0.009261  -0.003677   0.025509  -0.054627  -0.054796
   43  O  3 XY    0.001385   0.046087   0.006486   0.091710  -0.001767
   44  O  3 XZ   -0.004560   0.003108   0.014741  -0.104776   0.000422
   45  O  3 YZ    0.019577  -0.016092   0.008985  -0.040647   0.005951
   46  H  4  S   -0.506701   0.068177  -0.324542   0.012419  -0.064721
   47  H  4  S   -0.362898   0.687187  -0.417416  -0.355988   1.041505
   48  H  5  S    0.168096  -0.416371   0.329809   0.228857   0.561367
   49  H  5  S    0.305047   0.569332  -1.317976  -0.099941  -0.761374
   50  F  6  S   -0.001134  -0.003951  -0.008810  -0.001780   0.026635
   51  F  6  S   -0.095841  -0.161790  -0.156835   0.085145  -0.082182
   52  F  6  X   -0.012860   0.067477  -0.043307   0.019251  -0.145295
   53  F  6  Y    0.111515   0.068916   0.097079   0.051592  -0.044853
   54  F  6  Z   -0.071963   0.020546   0.097486   0.015338  -0.167369
   55  F  6  S    0.120058   0.161612   0.344379  -0.119417  -0.052386
   56  F  6  X    0.009257   0.021078   0.005135  -0.025776  -0.085595
   57  F  6  Y    0.025897   0.007239  -0.097672   0.025486  -0.093770
   58  F  6  Z   -0.170006  -0.117409   0.066146   0.021939  -0.086842
   59  F  6 XX   -0.031997  -0.060067  -0.067433   0.017709   0.084827
   60  F  6 YY    0.003300  -0.084185  -0.125002   0.020691  -0.017496
   61  F  6 ZZ   -0.102830  -0.099177  -0.034144   0.041298  -0.020715
   62  F  6 XY    0.001571  -0.029828  -0.090402  -0.017263   0.088054
   63  F  6 XZ   -0.026039  -0.050794   0.034455  -0.004659   0.063022
   64  F  6 YZ   -0.036618  -0.046064  -0.009201  -0.018818   0.042718
   65  H  7  S   -0.335032  -0.171326  -0.255276   0.101050   0.247499
   66  H  7  S   -0.617426  -0.727576   0.558834   0.062599  -0.955820

                     31         32         33         34         35
                    1.0854     1.0969     1.1125     1.1887     1.2514
                     A          A          A          A          A   
    1  C  1  S   -0.025067  -0.026748   0.046293  -0.045342   0.020170
    2  C  1  S   -0.156954   0.375261  -0.952084   0.361187  -0.486856
    3  C  1  X   -0.150877  -0.099537   0.233695  -0.560290  -0.232439
    4  C  1  Y   -0.299792   0.007498   0.077004  -0.330117  -0.241713
    5  C  1  Z   -0.482837   0.030010  -0.123189  -0.114203  -0.135631
    6  C  1  S    0.510223  -1.016255   2.507363   1.337979   2.287412
    7  C  1  X    0.009285   0.125756  -0.226251   0.739541   0.927786
    8  C  1  Y    0.510384   0.280567  -0.609035  -0.362716   0.199299
    9  C  1  Z    0.539936  -0.268330   0.541417   0.258406  -0.133878
   10  C  1 XX   -0.052317  -0.029843  -0.001159   0.096337   0.031682
   11  C  1 YY   -0.120341   0.022442  -0.031599   0.044513  -0.053840
   12  C  1 ZZ    0.077138   0.013033  -0.039898  -0.122526  -0.043437
   13  C  1 XY   -0.022043  -0.059298   0.186120   0.058468   0.065547
   14  C  1 XZ   -0.114902  -0.021942   0.087815   0.072065   0.121230
   15  C  1 YZ    0.042218  -0.028028   0.037967  -0.029764   0.148973
   16  C  2  S   -0.029533   0.067103   0.024356   0.010481   0.020633
   17  C  2  S   -0.919513  -0.440896  -0.160846   0.209810   0.660648
   18  C  2  X    0.113487   0.097983  -0.192610   0.036774  -0.091511
   19  C  2  Y    0.369482   0.388961   0.129321   0.101171  -0.021959
   20  C  2  Z   -0.188675  -0.190069  -0.075023  -0.051261   0.054859
   21  C  2  S    1.702705   1.654566  -0.292529  -1.287794  -2.106822
   22  C  2  X   -0.412697  -0.237595   0.694383   0.660046   0.350962
   23  C  2  Y   -0.994400  -0.650328   0.052918  -0.430216  -0.889532
   24  C  2  Z    0.524582   0.383582  -0.230256  -0.171986   0.100352
   25  C  2 XX   -0.160918   0.124627  -0.122191  -0.088487   0.035332
   26  C  2 YY   -0.037971  -0.031703   0.129876   0.120842   0.013261
   27  C  2 ZZ   -0.032526  -0.066721  -0.025233  -0.039023   0.032454
   28  C  2 XY   -0.034668   0.130568   0.037034  -0.074300   0.030726
   29  C  2 XZ    0.127869  -0.131301  -0.064726  -0.019952  -0.070719
   30  C  2 YZ   -0.018803  -0.118498  -0.080502  -0.008533   0.000216
   31  O  3  S    0.005681  -0.017646  -0.006851   0.007617  -0.013596
   32  O  3  S    0.232488  -0.330329  -0.040815   0.005390  -0.096853
   33  O  3  X    0.229276  -0.504280  -0.063706   0.227502  -0.337822
   34  O  3  Y    0.036386  -0.238241  -0.044519   0.030124  -0.091141
   35  O  3  Z   -0.155770   0.277595   0.012441   0.010054  -0.368635
   36  O  3  S   -0.221520   0.460778  -0.133048  -0.028653   0.693778
   37  O  3  X   -0.403280   0.792456   0.042076  -0.287090   0.256047
   38  O  3  Y   -0.041253   0.362911  -0.069764   0.030296   0.229254
   39  O  3  Z    0.176991  -0.429501   0.089666   0.052968   0.455597
   40  O  3 XX    0.166893  -0.204309   0.012013   0.075449  -0.028227
   41  O  3 YY    0.072660  -0.174570  -0.039066   0.026926  -0.024042
   42  O  3 ZZ    0.101109  -0.155590  -0.044900  -0.028378  -0.107803
   43  O  3 XY   -0.001603  -0.079976  -0.052035  -0.000990  -0.012969
   44  O  3 XZ   -0.038625   0.062564   0.026384  -0.034359  -0.006480
   45  O  3 YZ    0.010700   0.045568   0.046437  -0.005240  -0.029172
   46  H  4  S    0.233784   0.419515   0.642021   0.366095  -0.299781
   47  H  4  S   -1.281684  -1.145915  -0.548199  -0.314418   0.169575
   48  H  5  S   -0.330841  -0.200870   0.481090  -0.058041  -0.416298
   49  H  5  S    0.253528   0.163116  -0.465736  -0.009583  -0.079094
   50  F  6  S    0.011678   0.007447  -0.012828   0.007891  -0.035662
   51  F  6  S   -0.239205  -0.089165   0.145252  -0.582374  -0.532701
   52  F  6  X   -0.153147  -0.131421   0.310695   0.183846   0.115221
   53  F  6  Y   -0.036248  -0.068135   0.182418   0.071324   0.186044
   54  F  6  Z    0.050344   0.014907   0.006338  -0.111138   0.360506
   55  F  6  S    0.350352   0.286807  -0.646940   0.494414   0.815623
   56  F  6  X   -0.094178   0.051671  -0.214683  -0.656074  -0.396336
   57  F  6  Y   -0.100182   0.020925  -0.031679  -0.428250  -0.398042
   58  F  6  Z   -0.097934   0.027353  -0.077225  -0.386578  -0.381554
   59  F  6 XX   -0.006649   0.008306  -0.040237  -0.315745  -0.318574
   60  F  6 YY   -0.073963   0.004104  -0.019620  -0.245907  -0.273453
   61  F  6 ZZ   -0.126748  -0.032053   0.048033  -0.195960  -0.294833
   62  F  6 XY    0.047446   0.024239  -0.083486   0.033074  -0.053921
   63  F  6 XZ    0.016859   0.042741  -0.110294   0.042639  -0.052082
   64  F  6 YZ    0.009234   0.030099  -0.092890   0.035881  -0.067110
   65  H  7  S    0.465544  -0.080093   0.100843  -0.777084   0.207936
   66  H  7  S   -1.033218   0.401209  -0.853397   0.471611  -0.347653

                     36         37         38         39         40
                    1.2824     1.3511     1.3890     1.5469     1.6556
                     A          A          A          A          A   
    1  C  1  S    0.001798  -0.024377  -0.135112  -0.001772   0.009787
    2  C  1  S   -0.441185   0.248931  -1.522865   0.123510   0.052523
    3  C  1  X   -0.091259  -0.043181  -0.039309  -0.012848   0.124786
    4  C  1  Y   -0.151322   0.001373  -0.044650  -0.075492  -0.019697
    5  C  1  Z   -0.116638   0.071684   0.065025  -0.121759  -0.170314
    6  C  1  S    1.589018  -1.714493   4.038472  -0.068172   0.037807
    7  C  1  X    0.334613  -0.537337   1.190394   0.063136  -0.820202
    8  C  1  Y    0.064100   0.093074  -0.265579  -0.303058  -0.045620
    9  C  1  Z   -0.069560   0.179147   0.164184   0.209013   0.601205
   10  C  1 XX   -0.040313  -0.047374  -0.085646  -0.078133   0.204189
   11  C  1 YY   -0.032319   0.005267  -0.065824  -0.008329  -0.058059
   12  C  1 ZZ    0.010256   0.032495  -0.108553   0.098145  -0.134773
   13  C  1 XY    0.031388  -0.000805  -0.143665   0.074277   0.051725
   14  C  1 XZ    0.055819  -0.070048  -0.100575   0.122069   0.030677
   15  C  1 YZ    0.079540  -0.039605  -0.131424  -0.201256  -0.196935
   16  C  2  S    0.002616  -0.008685   0.023537  -0.020745  -0.006396
   17  C  2  S    0.267498  -0.139148   0.440053  -0.129585  -0.085014
   18  C  2  X   -0.068220   0.168807   0.054393   0.039191  -0.055289
   19  C  2  Y   -0.081327  -0.251067   0.096730   0.071281  -0.103071
   20  C  2  Z   -0.091279   0.109635  -0.009334   0.072462  -0.029721
   21  C  2  S   -1.031898   0.526255  -2.676856   0.138462  -0.798534
   22  C  2  X    0.216967  -1.025321   0.936639  -0.228450  -0.616926
   23  C  2  Y   -0.143187   1.723160  -1.262575  -0.206344   0.285554
   24  C  2  Z    0.590899  -0.661283   0.204712  -0.243857   0.167659
   25  C  2 XX    0.022071  -0.122553  -0.000905  -0.183705  -0.060533
   26  C  2 YY    0.012241   0.081486   0.053731   0.065215   0.153995
   27  C  2 ZZ   -0.015787   0.046056  -0.034775   0.079227  -0.080321
   28  C  2 XY    0.064786   0.075716  -0.025175  -0.069130  -0.148426
   29  C  2 XZ    0.033638   0.015548  -0.000778  -0.277942  -0.006698
   30  C  2 YZ   -0.004321  -0.073716  -0.061773   0.159569   0.052497
   31  O  3  S   -0.008499   0.003602  -0.009615  -0.001581  -0.041814
   32  O  3  S   -0.076724  -0.004884  -0.180084  -0.064043  -0.719999
   33  O  3  X    0.069903  -0.359111   0.070043   0.017795   0.126711
   34  O  3  Y    0.462313   0.680344  -0.031863  -0.050161   0.074929
   35  O  3  Z    0.716570  -0.308211  -0.083430  -0.050759   0.014640
   36  O  3  S    0.452351  -0.136974   0.772061   0.174110   2.059338
   37  O  3  X   -0.195670   0.728476  -0.324918   0.010388  -0.658726
   38  O  3  Y   -0.581602  -1.279491   0.204790   0.134323  -0.343679
   39  O  3  Z   -0.915558   0.530158   0.110123   0.277724   0.215164
   40  O  3 XX   -0.024904   0.069912   0.003900   0.019084  -0.273438
   41  O  3 YY   -0.041079  -0.054206  -0.023309   0.051702  -0.103442
   42  O  3 ZZ   -0.031653   0.003351  -0.132372  -0.107269  -0.182668
   43  O  3 XY   -0.031192  -0.045757  -0.032028   0.071736  -0.006258
   44  O  3 XZ   -0.028508   0.009942  -0.047312   0.043013   0.003789
   45  O  3 YZ   -0.020928   0.061285  -0.068729   0.100770   0.050487
   46  H  4  S   -0.169803   0.163452   0.046030  -0.070198   0.140457
   47  H  4  S    0.100918   0.829352  -0.342803  -0.033966   0.165565
   48  H  5  S   -0.272922   0.010297  -0.477572   0.008404   0.121491
   49  H  5  S   -0.052371   0.196737  -0.176452   0.123384   0.044219
   50  F  6  S   -0.005611   0.012341   0.034328   0.024135   0.017158
   51  F  6  S   -0.091143   0.044456   0.222049   0.249824   0.209671
   52  F  6  X    0.144342  -0.116133  -0.251427   0.294390  -0.419077
   53  F  6  Y   -0.053792  -0.086104  -0.258758  -0.655886   0.099936
   54  F  6  Z    0.169012  -0.063356  -0.235382   0.218788   0.489952
   55  F  6  S   -0.045429   0.005686  -0.707529  -0.640824  -0.616767
   56  F  6  X   -0.281310   0.151170   0.473292  -0.514737   0.677324
   57  F  6  Y   -0.056981   0.148575   0.514811   0.770979  -0.229470
   58  F  6  Z   -0.169048   0.035429   0.389051  -0.348688  -0.868531
   59  F  6 XX   -0.076849   0.078682   0.099449   0.089173  -0.131211
   60  F  6 YY   -0.050002   0.017049   0.206430   0.118541   0.205823
   61  F  6 ZZ   -0.064233   0.064093   0.257308   0.137316   0.186703
   62  F  6 XY   -0.007070   0.040262  -0.005360   0.077464  -0.025400
   63  F  6 XZ   -0.014849   0.014385   0.005407   0.067500   0.094521
   64  F  6 YZ   -0.057652   0.050798  -0.066141  -0.070341   0.041403
   65  H  7  S    0.147605  -0.128069  -0.431200   0.066553   0.061999
   66  H  7  S   -0.472408   0.129623  -0.379721  -0.066395  -0.450499

                     41         42         43         44         45
                    1.7026     1.7082     1.8024     1.8771     1.9418
                     A          A          A          A          A   
    1  C  1  S    0.017772  -0.001466  -0.002155   0.016202  -0.007014
    2  C  1  S    0.141118  -0.020745  -0.140650  -0.043706  -0.194871
    3  C  1  X   -0.031005  -0.006598  -0.015790  -0.078837  -0.112356
    4  C  1  Y   -0.158174   0.222788  -0.006514  -0.001473   0.114559
    5  C  1  Z    0.138424  -0.067697  -0.133132  -0.037826   0.082264
    6  C  1  S   -0.180072   0.263172   0.905225  -0.600874   0.001662
    7  C  1  X    0.372250   0.485107  -0.158274   0.267406   0.320157
    8  C  1  Y    0.760177  -0.523852  -0.192496   0.209180  -0.698696
    9  C  1  Z   -1.215062   0.502406   0.507633  -0.300077   0.655381
   10  C  1 XX   -0.057132  -0.097327   0.062974   0.376440  -0.086526
   11  C  1 YY   -0.024467   0.370271  -0.003945  -0.295878   0.084967
   12  C  1 ZZ    0.090280  -0.245800  -0.061901  -0.116075   0.001096
   13  C  1 XY   -0.061406   0.050452   0.067792   0.011619  -0.460000
   14  C  1 XZ    0.141267  -0.239038  -0.123580  -0.221919   0.301435
   15  C  1 YZ    0.050318   0.184086   0.062894   0.077398   0.156177
   16  C  2  S   -0.040106  -0.013587   0.003241  -0.012385   0.021858
   17  C  2  S   -0.238433   0.034672  -0.013327  -0.390723   0.124057
   18  C  2  X   -0.055139  -0.049655   0.053200   0.066420   0.149985
   19  C  2  Y    0.060652   0.045687   0.062513  -0.056527  -0.009081
   20  C  2  Z    0.057850   0.012390   0.159816  -0.006046  -0.016620
   21  C  2  S   -1.955551  -1.377688   0.040212   0.402085  -0.520687
   22  C  2  X   -1.824868  -0.195426   0.181470  -0.845786   0.629087
   23  C  2  Y   -1.347445  -0.506398  -0.074839  -0.440041   0.908824
   24  C  2  Z    1.173931   0.133645  -0.253520   0.499666  -0.687161
   25  C  2 XX   -0.099009   0.090346  -0.070617   0.026003   0.171047
   26  C  2 YY    0.000716  -0.032173  -0.419463   0.187721  -0.201726
   27  C  2 ZZ    0.081184  -0.053968   0.478701  -0.274344   0.007114
   28  C  2 XY   -0.175006   0.101373  -0.217091  -0.250904  -0.118126
   29  C  2 XZ    0.064809   0.327538  -0.055153  -0.035131  -0.019337
   30  C  2 YZ   -0.067129  -0.116903  -0.390383  -0.053499   0.030032
   31  O  3  S   -0.091893  -0.030212   0.003987  -0.023167   0.023914
   32  O  3  S   -1.444257  -0.539910   0.111980  -0.138065   0.119634
   33  O  3  X    0.133218   0.091173   0.001395  -0.159919   0.073088
   34  O  3  Y    0.090410  -0.052565   0.032700   0.041567   0.133320
   35  O  3  Z   -0.097626  -0.137519   0.130779   0.023402  -0.047698
   36  O  3  S    4.949419   1.671119  -0.335509   0.937635  -0.944362
   37  O  3  X   -1.253631  -0.546447   0.093439  -0.070201   0.182906
   38  O  3  Y   -0.477139  -0.090106   0.115682  -0.119412  -0.128980
   39  O  3  Z    0.670948   0.253581   0.022501   0.062693  -0.000137
   40  O  3 XX   -0.357957  -0.187523   0.201496  -0.138084  -0.007988
   41  O  3 YY   -0.347003  -0.214942  -0.057018   0.247370   0.082951
   42  O  3 ZZ   -0.418382  -0.001670  -0.072393  -0.255080   0.072778
   43  O  3 XY   -0.068579  -0.093324   0.173478  -0.110089   0.114998
   44  O  3 XZ    0.139517  -0.039998   0.370471  -0.089199   0.051358
   45  O  3 YZ   -0.076250  -0.074279  -0.168312  -0.196562  -0.016216
   46  H  4  S   -0.152012   0.011838  -0.033765  -0.282195   0.508907
   47  H  4  S   -0.482532  -0.106520  -0.013957  -0.325996   0.438146
   48  H  5  S   -0.202538   0.046642   0.010917   0.144358   0.306038
   49  H  5  S   -0.332294   0.241239   0.055810  -0.091979   0.169717
   50  F  6  S    0.020002  -0.016655   0.023074  -0.006827  -0.024603
   51  F  6  S    0.317833  -0.154059   0.310215  -0.076165  -0.477167
   52  F  6  X    0.189070   0.143757  -0.022162   0.223757  -0.073372
   53  F  6  Y    0.123785  -0.240326   0.028694  -0.165245  -0.158959
   54  F  6  Z   -0.285102   0.215913   0.106445  -0.123584   0.224277
   55  F  6  S   -0.704410   0.464093  -0.842606   0.303788   1.104018
   56  F  6  X   -0.475258  -0.247876  -0.035704  -0.247957   0.196725
   57  F  6  Y   -0.328685   0.650203  -0.053463   0.213690   0.379710
   58  F  6  Z    0.575585  -0.420914  -0.335572   0.183003  -0.164184
   59  F  6 XX    0.133587   0.093698   0.099337   0.012871   0.051118
   60  F  6 YY    0.300443  -0.279917   0.021670  -0.016281   0.059388
   61  F  6 ZZ   -0.078002  -0.034433   0.241350  -0.086419  -0.576847
   62  F  6 XY    0.024309  -0.208030  -0.017891  -0.184250  -0.200704
   63  F  6 XZ    0.117707   0.171431  -0.041590  -0.152049  -0.151760
   64  F  6 YZ   -0.150376  -0.004105   0.138595   0.395419   0.067767
   65  H  7  S    0.165472  -0.084452  -0.138330   0.151936  -0.095539
   66  H  7  S    0.509707  -0.071187  -0.409670   0.107543  -0.085492

                     46         47         48         49         50
                    2.0035     2.0601     2.0975     2.2124     2.2458
                     A          A          A          A          A   
    1  C  1  S   -0.017525  -0.009410   0.013060   0.029251  -0.055564
    2  C  1  S   -0.080834  -0.155569  -0.122253   0.609368  -0.204945
    3  C  1  X   -0.054148   0.031228   0.062688   0.336947   0.160623
    4  C  1  Y   -0.025832  -0.143660  -0.003895   0.060336  -0.239066
    5  C  1  Z    0.118223  -0.016735  -0.022024   0.145411  -0.022053
    6  C  1  S    0.354586   0.429586  -0.736158  -3.546354   2.578023
    7  C  1  X    0.394382   0.204151   0.903086   0.353121   0.679135
    8  C  1  Y    0.232446   0.102897   0.517476   1.062128  -0.446467
    9  C  1  Z   -0.050218   0.314209  -0.436011   0.686597  -0.285570
   10  C  1 XX   -0.049040   0.162004   0.201594  -0.085959   0.029146
   11  C  1 YY   -0.160794  -0.293154   0.005717  -0.168352  -0.041322
   12  C  1 ZZ    0.221567   0.119539  -0.146188   0.252127   0.009361
   13  C  1 XY   -0.021335   0.047886   0.013033  -0.153556   0.055951
   14  C  1 XZ   -0.154690   0.112998  -0.241984  -0.203585   0.068386
   15  C  1 YZ    0.235137  -0.132928  -0.124936  -0.227912   0.000452
   16  C  2  S    0.007499   0.007507   0.019881  -0.005307   0.013611
   17  C  2  S    0.110778  -0.071162   0.084661  -0.007285   0.397551
   18  C  2  X   -0.138468  -0.022479  -0.063262  -0.028410   0.028676
   19  C  2  Y    0.143958  -0.025214   0.071634  -0.082951  -0.117831
   20  C  2  Z   -0.017005  -0.099008   0.046835   0.059022   0.013972
   21  C  2  S   -1.726778  -0.311292  -0.845117   0.830435  -2.150007
   22  C  2  X   -0.666872  -0.234237  -0.343262  -0.652295   0.886558
   23  C  2  Y   -0.852016  -0.241089  -0.460634  -0.111645  -1.371624
   24  C  2  Z    0.594766  -0.112327   0.343391  -0.062089   0.551065
   25  C  2 XX   -0.057060   0.115687   0.002537  -0.098779  -0.276373
   26  C  2 YY   -0.042313  -0.076268  -0.153648   0.012130   0.195702
   27  C  2 ZZ    0.143188  -0.051262   0.150412   0.140220   0.044225
   28  C  2 XY   -0.055023   0.062380  -0.046323   0.013234   0.249389
   29  C  2 XZ    0.057358   0.255995   0.026930   0.151214  -0.081191
   30  C  2 YZ    0.208503   0.045301   0.151613  -0.194369  -0.127758
   31  O  3  S   -0.039721  -0.008257  -0.019366  -0.000089  -0.014488
   32  O  3  S   -0.691922  -0.056640  -0.131461  -0.092139  -0.308048
   33  O  3  X    0.013972  -0.107476  -0.108206   0.026848   0.197731
   34  O  3  Y    0.020418  -0.025006   0.084352  -0.103959  -0.162389
   35  O  3  Z    0.002839  -0.098812   0.037726   0.065750   0.029745
   36  O  3  S    2.498918   0.386796   0.899481   0.317818   1.033140
   37  O  3  X   -0.682559  -0.005401  -0.126948  -0.092242  -0.616586
   38  O  3  Y   -0.175324  -0.006672  -0.169333   0.090808   0.350553
   39  O  3  Z    0.266430   0.176984   0.068672   0.001721  -0.027365
   40  O  3 XX   -0.377760  -0.126067  -0.250521   0.213008   0.204033
   41  O  3 YY   -0.001973  -0.506811  -0.062421  -0.036457  -0.464015
   42  O  3 ZZ   -0.040347   0.593223   0.194363  -0.177972   0.083524
   43  O  3 XY    0.165112   0.055469   0.443515  -0.306611  -0.068436
   44  O  3 XZ   -0.018967   0.137222   0.030847   0.053629   0.031786
   45  O  3 YZ    0.227164  -0.336638   0.410631   0.014113   0.395280
   46  H  4  S    0.125500   0.084145   0.137731  -0.295798  -0.363509
   47  H  4  S   -0.254399  -0.069372  -0.130322   0.083689  -0.314866
   48  H  5  S    0.028722   0.044527  -0.160747   0.240144  -0.173175
   49  H  5  S   -0.078839  -0.052024  -0.055613   0.116451  -0.053717
   50  F  6  S   -0.008147  -0.004019  -0.045268  -0.093710   0.029869
   51  F  6  S   -0.220314   0.012434  -0.725137  -1.611686   0.288698
   52  F  6  X   -0.059109   0.154190   0.154031   0.057873  -0.056920
   53  F  6  Y   -0.026788  -0.193193   0.040019  -0.046694  -0.025203
   54  F  6  Z    0.048138   0.028795  -0.226340   0.083406  -0.003681
   55  F  6  S    0.503559   0.034143   2.020505   4.676071  -1.122679
   56  F  6  X    0.052778  -0.186635   0.006148   0.589304  -0.158881
   57  F  6  Y    0.071220   0.169486   0.137794   0.525698  -0.084027
   58  F  6  Z    0.026284  -0.077377   0.517817   0.289197  -0.084306
   59  F  6 XX    0.082033  -0.239670  -0.425623  -0.700883   0.309357
   60  F  6 YY   -0.479937   0.162379  -0.049403  -0.374284   0.211282
   61  F  6 ZZ    0.201763   0.054032  -0.244039  -0.394119  -0.185334
   62  F  6 XY    0.278220   0.146803  -0.314523  -0.080885  -0.233019
   63  F  6 XZ   -0.469244  -0.120703   0.187588  -0.180222  -0.184422
   64  F  6 YZ    0.069373   0.084300  -0.030685  -0.207177   0.497305
   65  H  7  S   -0.324290  -0.114975   0.293130  -0.009788  -0.146438
   66  H  7  S    0.091612  -0.176714   0.352471   0.309006  -0.019525

                     51         52         53         54         55
                    2.3381     2.4115     2.4921     2.6384     2.7888
                     A          A          A          A          A   
    1  C  1  S   -0.026298  -0.014800  -0.066333  -0.056307  -0.029869
    2  C  1  S   -0.225463   0.012097  -0.094991  -0.123910   0.239459
    3  C  1  X    0.028795  -0.227131  -0.044468   0.259050   0.269970
    4  C  1  Y   -0.098733   0.006030  -0.114199  -0.222463  -0.136679
    5  C  1  Z    0.077237   0.015814  -0.015348  -0.191676   0.031712
    6  C  1  S    1.422509   0.315761   1.805614   1.613625  -0.272403
    7  C  1  X   -0.046488   0.021969   0.103670   0.844708  -0.016657
    8  C  1  Y   -0.482845  -0.270608  -0.577400  -0.489391  -0.101111
    9  C  1  Z    0.387616   0.004721   0.214017  -0.528480   0.077067
   10  C  1 XX    0.084530   0.293955   0.024319   0.260165  -0.069912
   11  C  1 YY   -0.217157  -0.193888  -0.357611   0.219613  -0.075298
   12  C  1 ZZ    0.091619  -0.157189   0.275196  -0.587813   0.019989
   13  C  1 XY   -0.015731  -0.140317   0.303006  -0.334256   0.093168
   14  C  1 XZ    0.005505  -0.131588  -0.085122   0.240969  -0.322080
   15  C  1 YZ    0.198896   0.495640   0.311613   0.399593   0.413037
   16  C  2  S    0.003333   0.004152   0.072691   0.071773  -0.061769
   17  C  2  S   -0.110975  -0.170539   0.375574  -0.123332  -0.023315
   18  C  2  X    0.066655   0.098703  -0.256306   0.328463   0.045090
   19  C  2  Y   -0.097306  -0.154784   0.037487  -0.126096   0.127051
   20  C  2  Z    0.022917   0.123848   0.072388   0.041279   0.068437
   21  C  2  S   -0.057263   0.298910  -1.617360  -1.569399  -0.007663
   22  C  2  X    0.323226   0.107904   0.735189   0.391625   0.100508
   23  C  2  Y   -0.152004  -0.147576  -0.203007  -0.833796   0.138761
   24  C  2  Z   -0.309934   0.154958  -0.042976   0.402023  -0.012113
   25  C  2 XX    0.061020  -0.184146  -0.412934  -0.055952   0.197782
   26  C  2 YY   -0.244148   0.510400   0.146841  -0.129559  -0.124805
   27  C  2 ZZ    0.158214  -0.345754   0.456131   0.378141  -0.298112
   28  C  2 XY   -0.017909  -0.248673   0.046875   0.196391   0.749192
   29  C  2 XZ    0.337508  -0.100569   0.297009   0.162579  -0.401550
   30  C  2 YZ   -0.461771  -0.084166   0.422524   0.466397  -0.070769
   31  O  3  S    0.001635   0.000265  -0.000700  -0.006056  -0.012445
   32  O  3  S    0.172453   0.203102   0.266943  -0.073635  -0.533999
   33  O  3  X   -0.062064  -0.098373  -0.273840  -0.049436   0.431365
   34  O  3  Y   -0.086313  -0.099477  -0.157865  -0.059167   0.166990
   35  O  3  Z   -0.029189   0.105015   0.164833   0.031862  -0.201074
   36  O  3  S   -0.433426  -0.294593  -0.086348   0.598958   0.527371
   37  O  3  X    0.116881   0.045232   0.007146  -0.259611  -0.319798
   38  O  3  Y    0.186074   0.143671   0.107606   0.189051  -0.281233
   39  O  3  Z    0.068908  -0.168901  -0.095312  -0.058372   0.074364
   40  O  3 XX   -0.116229   0.222419  -0.015926   0.295651  -0.090714
   41  O  3 YY    0.238459  -0.327280   0.247539  -0.067912   0.056429
   42  O  3 ZZ   -0.058116   0.204408  -0.043075  -0.230914  -0.322283
   43  O  3 XY   -0.013793   0.141445  -0.045963  -0.297862   0.313566
   44  O  3 XZ   -0.393639   0.234520   0.074208   0.104985   0.114236
   45  O  3 YZ    0.414540   0.150421  -0.228388   0.117772  -0.218953
   46  H  4  S   -0.125012  -0.391052   0.221450   0.192080   0.083509
   47  H  4  S   -0.038345  -0.065590   0.077884  -0.346987  -0.002395
   48  H  5  S    0.168115   0.263550   0.112628  -0.021858   0.192155
   49  H  5  S   -0.047189  -0.066456  -0.012357  -0.076981  -0.030530
   50  F  6  S    0.015906   0.016324   0.021779   0.011408  -0.000070
   51  F  6  S    0.538623  -0.010917   0.030809   0.034995  -0.161561
   52  F  6  X    0.104142  -0.129304  -0.233798   0.020864  -0.037760
   53  F  6  Y   -0.126391  -0.094880  -0.107973  -0.115972  -0.063368
   54  F  6  Z    0.112485   0.001542  -0.022890  -0.145682   0.015737
   55  F  6  S   -1.325569  -0.330752  -0.758693  -0.493886   0.297621
   56  F  6  X   -0.300044   0.046138   0.088629  -0.362267  -0.012867
   57  F  6  Y    0.117629   0.039522  -0.035137   0.143690   0.250984
   58  F  6  Z   -0.313621  -0.113100  -0.182605   0.239929  -0.023786
   59  F  6 XX   -0.129480   0.058688   0.131975  -0.421012  -0.387476
   60  F  6 YY    0.460439  -0.011251   0.245783   0.088140   0.400347
   61  F  6 ZZ    0.040085   0.030177  -0.282343   0.387366  -0.069691
   62  F  6 XY    0.220129   0.115165  -0.222235   0.141800   0.088660
   63  F  6 XZ    0.102941   0.141253   0.260064  -0.048653   0.002859
   64  F  6 YZ   -0.061898  -0.428939  -0.019745   0.154274   0.032190
   65  H  7  S   -0.352846  -0.119725  -0.481643   0.375738  -0.160540
   66  H  7  S   -0.251803  -0.003034  -0.082619   0.029037   0.111457

                     56         57         58         59         60
                    2.9271     3.0018     3.0419     3.2259     3.2709
                     A          A          A          A          A   
    1  C  1  S   -0.001166   0.034245   0.007857  -0.055971   0.020239
    2  C  1  S   -0.040307  -0.654556  -0.267386  -0.161250   0.118454
    3  C  1  X   -0.053027   0.215372   0.058644  -0.064484  -0.304276
    4  C  1  Y   -0.030547   0.247162  -0.153236   0.280854  -0.027303
    5  C  1  Z    0.114333   0.072180   0.390683   0.122562  -0.052177
    6  C  1  S   -0.485275   1.088414   0.870713   1.059894  -0.358152
    7  C  1  X   -0.258457   0.274643   0.087949   0.118804  -0.266658
    8  C  1  Y    0.019226  -0.131210  -0.501028   0.131309   0.054589
    9  C  1  Z    0.129783   0.014130   0.586374   0.141073   0.069332
   10  C  1 XX   -0.083371  -0.220754   0.301506   0.983666  -0.219558
   11  C  1 YY    0.240580  -0.150107   0.496144  -0.860580   0.100302
   12  C  1 ZZ   -0.165324   0.682576  -0.647976  -0.283470   0.062405
   13  C  1 XY    0.298373  -0.624040   0.051714  -0.063100   0.760941
   14  C  1 XZ    0.164179  -0.504597  -0.763374   0.149022  -0.086683
   15  C  1 YZ   -0.197384  -0.157190  -0.360913  -0.396825   0.204667
   16  C  2  S    0.003931   0.015362   0.038955   0.002832  -0.081388
   17  C  2  S    0.021206  -0.032522  -0.023009  -0.009327  -0.182958
   18  C  2  X    0.002819   0.104689   0.124391  -0.056597  -0.450218
   19  C  2  Y    0.157151  -0.039008  -0.049770  -0.162041  -0.121911
   20  C  2  Z    0.210656   0.133443  -0.033573   0.061020   0.172002
   21  C  2  S    0.513180  -0.570444  -0.535634  -1.038521   0.273805
   22  C  2  X   -0.112602   0.289696   0.384623   0.343712  -0.326778
   23  C  2  Y    0.368515  -0.314552  -0.020184  -0.464392  -0.290253
   24  C  2  Z    0.099611   0.151085  -0.200971   0.205206   0.205888
   25  C  2 XX    0.245659   0.281617  -0.164291   0.231886   0.602026
   26  C  2 YY    0.348370  -0.038450   0.030151  -0.387428  -0.605414
   27  C  2 ZZ   -0.531933  -0.238341   0.276233   0.040507  -0.342413
   28  C  2 XY    0.166932  -0.022777   0.032038   0.382569  -0.683459
   29  C  2 XZ    0.746839   0.164379  -0.074377   0.111840   0.006249
   30  C  2 YZ   -0.014726   0.384238   0.142307   0.089904   0.392673
   31  O  3  S    0.008642  -0.008333  -0.009388  -0.009476   0.000480
   32  O  3  S    0.219828   0.009310   0.116260  -0.389361  -0.289302
   33  O  3  X   -0.137495  -0.042168  -0.027043   0.142964  -0.073441
[...]
   30  C  2 YZ   -0.009872  -0.015064   0.003129   0.000146   0.000985
   31  O  3  S    0.000937  -0.000002   0.001378   0.028688   0.035647
   32  O  3  S    0.012958   0.000029  -0.015967   0.000251  -0.087764
   33  O  3  X    0.245714   0.027830   0.019602   0.031132   0.090410
   34  O  3  Y   -0.450123   0.049860  -0.011636  -0.067979   0.051699
   35  O  3  Z   -0.044644  -0.349325  -0.000089  -0.007195   0.014926
   36  O  3  S   -0.071735  -0.000091   0.068534  -0.677831  -0.391446
   37  O  3  X    0.212344   0.039016  -0.024904   0.228644   0.131207
   38  O  3  Y   -0.354308   0.069794  -0.034269  -0.044151   0.286127
   39  O  3  Z   -0.033623  -0.489130  -0.006914   0.012018   0.051795
   40  O  3 XX   -0.008837  -0.000227   0.003858   0.006838  -0.010882
   41  O  3 YY    0.016186   0.000232  -0.001499   0.022221  -0.001911
   42  O  3 ZZ    0.005771   0.000017  -0.009404   0.020443   0.002451
   43  O  3 XY    0.010434  -0.000168  -0.003768  -0.012455  -0.012598
   44  O  3 XZ    0.000174   0.001690   0.000703  -0.003062  -0.003068
   45  O  3 YZ    0.002604  -0.000911   0.001025  -0.000752  -0.001803
   46  H  4  S   -0.182244   0.000028   0.066240   0.014289   0.026225
   47  H  4  S   -0.216889   0.000120   0.730323   1.565863  -1.519159
   48  H  5  S   -0.048193   0.085011  -0.024451  -0.007074  -0.019197
   49  H  5  S   -0.070456   0.460209  -1.262870   0.889539   0.133283
   50  F  6  S    0.002182   0.000021  -0.026610  -0.027602  -0.070792
   51  F  6  S    0.013928  -0.000050   0.029349   0.030626   0.055739
   52  F  6  X   -0.111267   0.001958   0.051670   0.078430   0.153963
   53  F  6  Y    0.063493   0.003683   0.039623   0.133547   0.096245
   54  F  6  Z    0.000189  -0.026099   0.009735   0.025178   0.025610
   55  F  6  S   -0.063393  -0.000168   0.295537   0.269122   0.871664
   56  F  6  X   -0.106203   0.003211   0.109089   0.097660   0.325641
   57  F  6  Y    0.048717   0.005900   0.055629   0.207494   0.278098
   58  F  6  Z   -0.001503  -0.041997   0.016556   0.037188   0.064732
   59  F  6 XX    0.007176  -0.000387  -0.006310  -0.015526  -0.025217
   60  F  6 YY    0.006426   0.001418  -0.004582  -0.011432  -0.031397
   61  F  6 ZZ    0.007412  -0.001044  -0.014877  -0.010154  -0.037618
   62  F  6 XY   -0.001715   0.000052   0.006179  -0.000848   0.016618
   63  F  6 XZ   -0.000270   0.002869   0.001697  -0.000615   0.003564
   64  F  6 YZ   -0.000307  -0.005706   0.002244  -0.000289   0.002422
   65  H  7  S   -0.048159  -0.084965  -0.024482  -0.007090  -0.019240
   66  H  7  S   -0.070457  -0.460256  -1.262922   0.888207   0.123267

                     21         22         23         24         25
                    0.3219     0.4357     0.4759     0.7306     0.7408
                     A          A          A          A          A   
    1  C  1  S    0.000186   0.102459   0.060193  -0.024403   0.000020
    2  C  1  S   -0.000295  -0.073086  -0.077336   0.345260  -0.000206
    3  C  1  X    0.032979   0.090848  -0.171185   0.305341   0.012753
    4  C  1  Y    0.058532   0.109133   0.180468  -0.816626   0.022952
    5  C  1  Z   -0.409644   0.022779   0.011932  -0.092107  -0.157708
    6  C  1  S   -0.001435  -2.154756  -0.984987   0.160427  -0.000248
    7  C  1  X    0.121125  -0.403280  -1.595208  -0.309053  -0.028286
    8  C  1  Y    0.212570   1.578624   0.477556   1.215520  -0.051403
    9  C  1  Z   -1.486743   0.192673  -0.059078   0.148890   0.355842
   10  C  1 XX   -0.000393   0.010423   0.040216   0.018735   0.002002
   11  C  1 YY    0.000305   0.014804  -0.001349   0.038984   0.006558
   12  C  1 ZZ    0.000001  -0.037770  -0.031402  -0.029687  -0.008552
   13  C  1 XY   -0.000245  -0.009724  -0.008751  -0.068341   0.004281
   14  C  1 XZ    0.002669   0.003133   0.005391  -0.005258  -0.014132
   15  C  1 YZ   -0.001292   0.008075   0.004361   0.005898  -0.026047
   16  C  2  S   -0.000144  -0.032903  -0.095670   0.048692  -0.000009
   17  C  2  S    0.000125   0.079248   0.009512   0.200199   0.000038
   18  C  2  X   -0.007745  -0.228119  -0.167038  -0.163208   0.081199
   19  C  2  Y   -0.014764   0.126055   0.306513   0.105365   0.144858
   20  C  2  Z    0.098993  -0.000131   0.030335   0.001465  -1.016636
   21  C  2  S    0.002645  -0.022420   2.848007  -0.119731  -0.000264
   22  C  2  X   -0.039892  -2.528853   0.448913   0.384680  -0.079293
   23  C  2  Y   -0.077031  -0.008765   1.742291  -0.608526  -0.140807
   24  C  2  Z    0.523029  -0.202446   0.284678  -0.055682   0.990319
   25  C  2 XX   -0.001010  -0.005868  -0.006034   0.135451   0.001456
   26  C  2 YY    0.002614   0.014689  -0.006610   0.043113   0.003809
   27  C  2 ZZ   -0.001603  -0.006064   0.017721  -0.047591  -0.005275
   28  C  2 XY   -0.000208  -0.006411   0.006498  -0.062883   0.002783
   29  C  2 XZ    0.007184  -0.000873  -0.001301   0.007997  -0.010706
   30  C  2 YZ   -0.010292   0.002938  -0.003590   0.010241  -0.014875
   31  O  3  S    0.000108  -0.071601   0.083339  -0.008263  -0.000002
   32  O  3  S   -0.000259  -0.039379  -0.065033   0.017606   0.000090
   33  O  3  X    0.010606   0.057534   0.132359  -0.060856   0.001190
   34  O  3  Y    0.018661  -0.148926  -0.001857   0.065932   0.002054
   35  O  3  Z   -0.130168  -0.016685   0.010292   0.004623  -0.014461
   36  O  3  S   -0.001307   1.914929  -1.837068   0.049758  -0.000028
   37  O  3  X    0.017758  -0.416499   0.841884  -0.116703   0.004462
   38  O  3  Y    0.031940  -0.562680   0.093372   0.149697   0.007836
   39  O  3  Z   -0.217795  -0.113643   0.080405   0.012036  -0.055866
   40  O  3 XX   -0.000147  -0.020388   0.002168  -0.014254  -0.010499
   41  O  3 YY   -0.000300  -0.062317   0.019384   0.004475  -0.009903
   42  O  3 ZZ    0.000413  -0.072255   0.055246  -0.016107   0.020506
   43  O  3 XY   -0.000254   0.021224  -0.026365  -0.025283  -0.014063
   44  O  3 XZ    0.000732   0.007898  -0.008790  -0.003396   0.075359
   45  O  3 YZ    0.001187   0.003482  -0.008280   0.001391   0.038530
   46  H  4  S    0.000101   0.049206  -0.118938   0.080875   0.000092
   47  H  4  S   -0.004035   0.174096   0.710262  -0.169486   0.000107
   48  H  5  S    0.006792  -0.057102  -0.082495  -0.162005   0.146850
   49  H  5  S   -1.642623   0.010018  -0.223051  -0.110251   0.190488
   50  F  6  S   -0.000225  -0.051890   0.009946  -0.002077  -0.000001
   51  F  6  S    0.000159  -0.045313   0.055140  -0.063925   0.000034
   52  F  6  X   -0.005694   0.097508   0.134687  -0.056647   0.006298
   53  F  6  Y   -0.010663   0.106907  -0.087208  -0.145247   0.011364
   54  F  6  Z    0.077660   0.022934  -0.001739  -0.025206  -0.078527
   55  F  6  S    0.002802   0.898829  -0.337019   0.303219  -0.000243
   56  F  6  X   -0.013836   0.359146   0.125627   0.122824   0.002572
   57  F  6  Y   -0.025660   0.174717  -0.212638  -0.098198   0.004835
   58  F  6  Z    0.187423   0.053267  -0.020214  -0.004293  -0.033575
   59  F  6 XX    0.000565  -0.043899   0.016008   0.044023  -0.002183
   60  F  6 YY    0.000063  -0.058674   0.036852  -0.037910   0.002775
   61  F  6 ZZ   -0.000955  -0.067903   0.024078  -0.051573  -0.000612
   62  F  6 XY    0.000782  -0.009695  -0.014023   0.033651  -0.001382
   63  F  6 XZ   -0.004712   0.000825  -0.002730   0.013677   0.015592
   64  F  6 YZ   -0.000639   0.000777   0.000969   0.005158  -0.011284
   65  H  7  S   -0.006889  -0.057027  -0.082631  -0.162311  -0.146530
   66  H  7  S    1.644339   0.009807  -0.222065  -0.110607  -0.190258

                     26
                    0.7872
                     A   
    1  C  1  S    0.013875
    2  C  1  S   -0.236253
    3  C  1  X    0.968439
    4  C  1  Y    0.291004
    5  C  1  Z    0.118162
    6  C  1  S    0.461007
    7  C  1  X   -1.198078
    8  C  1  Y   -0.524636
    9  C  1  Z   -0.169731
   10  C  1 XX    0.050682
   11  C  1 YY    0.011089
   12  C  1 ZZ   -0.013903
   13  C  1 XY    0.096976
   14  C  1 XZ    0.019964
   15  C  1 YZ    0.012275
   16  C  2  S    0.019566
   17  C  2  S    0.042398
   18  C  2  X    0.145646
   19  C  2  Y   -0.044634
   20  C  2  Z    0.005650
   21  C  2  S    0.333140
   22  C  2  X    0.314862
   23  C  2  Y    0.145558
   24  C  2  Z    0.045276
   25  C  2 XX    0.004559
   26  C  2 YY    0.056031
   27  C  2 ZZ   -0.022010
   28  C  2 XY   -0.073512
   29  C  2 XZ   -0.007993
   30  C  2 YZ    0.007068
   31  O  3  S    0.005643
   32  O  3  S    0.100823
   33  O  3  X   -0.039844
   34  O  3  Y    0.142553
   35  O  3  Z    0.017176
   36  O  3  S   -0.418596
   37  O  3  X    0.045276
   38  O  3  Y    0.083169
   39  O  3  Z    0.015553
   40  O  3 XX    0.034806
   41  O  3 YY    0.046442
   42  O  3 ZZ    0.026011
   43  O  3 XY    0.033575
   44  O  3 XZ    0.005670
   45  O  3 YZ    0.006227
   46  H  4  S    0.034173
   47  H  4  S   -0.097475
   48  H  5  S    0.012047
   49  H  5  S   -0.010994
   50  F  6  S    0.004772
   51  F  6  S    0.153551
   52  F  6  X    0.257042
   53  F  6  Y    0.142011
   54  F  6  Z    0.040596
   55  F  6  S   -0.739183
   56  F  6  X   -0.061833
   57  F  6  Y   -0.092195
   58  F  6  Z   -0.017986
   59  F  6 XX   -0.006639
   60  F  6 YY    0.002308
   61  F  6 ZZ    0.099770
   62  F  6 XY   -0.110850
   63  F  6 XZ   -0.025952
   64  F  6 YZ   -0.025586
   65  H  7  S    0.012208
   66  H  7  S   -0.010783

     ----------------------------------------------------------------
     PROPERTY VALUES FOR THE RHF   SELF-CONSISTENT FIELD WAVEFUNCTION
     ----------------------------------------------------------------

          -----------------
          ENERGY COMPONENTS
          -----------------

         WAVEFUNCTION NORMALIZATION =       1.0000000000

                ONE ELECTRON ENERGY =    -574.1241481549
                TWO ELECTRON ENERGY =     207.6603285516
           NUCLEAR REPULSION ENERGY =     114.7055109342
                                      ------------------
                       TOTAL ENERGY =    -251.7583086691

 ELECTRON-ELECTRON POTENTIAL ENERGY =     207.6603285516
  NUCLEUS-ELECTRON POTENTIAL ENERGY =    -825.4701501644
   NUCLEUS-NUCLEUS POTENTIAL ENERGY =     114.7055109342
                                      ------------------
             TOTAL POTENTIAL ENERGY =    -503.1043106787
               TOTAL KINETIC ENERGY =     251.3460020095
                 VIRIAL RATIO (V/T) =       2.0016403947

          ---------------------------------------
          MULLIKEN AND LOWDIN POPULATION ANALYSES
          ---------------------------------------

     ATOMIC MULLIKEN POPULATION IN EACH MOLECULAR ORBITAL

                      1          2          3          4          5

                  2.000000   2.000000   2.000000   2.000000   2.000000

    1             0.000049  -0.000003   0.001151   1.997712   0.155470
    2            -0.000009  -0.000325   1.999239   0.001520   0.014393
    3             0.000000   2.000332  -0.000882   0.000003   0.000360
    4            -0.000001  -0.000004   0.000463   0.000004   0.000855
    5            -0.000002  -0.000000   0.000014   0.000507   0.002675
    6             1.999965   0.000000   0.000002  -0.000253   1.823571
    7            -0.000002  -0.000000   0.000014   0.000507   0.002676

                      6          7          8          9         10

                  2.000000   2.000000   2.000000   2.000000   2.000000

    1             0.020437   0.963641   0.365133   0.598955   0.368370
    2             0.501559   0.434779   0.702857   0.039889   0.277699
    3             1.475284   0.097305   0.265904   0.019142   0.297780
    4            -0.000920   0.018366   0.279269   0.000000   0.062026
    5             0.000302   0.099833   0.075040   0.126276   0.021912
    6             0.003035   0.286235   0.236722   1.089213   0.950692
    7             0.000302   0.099841   0.075075   0.126526   0.021520

                     11         12         13         14         15

                  2.000000   2.000000   2.000000   2.000000   2.000000

    1             0.268048   0.142686   0.229835   0.234801   0.325094
    2             0.286803   0.363806   0.273926   0.358143   0.276127
    3             0.446786   0.978936   0.418208   0.506168   0.823611
    4             0.063161   0.143749   0.006108   0.000000   0.000000
    5             0.026358   0.042624   0.081833   0.127093   0.174554
    6             0.882431   0.285575   0.908374   0.646531   0.226083
    7             0.026412   0.042625   0.081717   0.127264   0.174530

                     16

                  2.000000

    1             0.302493
    2             0.209509
    3             1.128548
    4             0.250546
    5             0.023386
    6             0.062144
    7             0.023374

               ----- POPULATIONS IN EACH AO -----
                             MULLIKEN      LOWDIN
              1  C  1  S      1.99668     1.97877
              2  C  1  S      0.65260     0.35536
              3  C  1  X      0.57380     0.52314
              4  C  1  Y      0.63772     0.57624
              5  C  1  Z      0.75291     0.66810
              6  C  1  S      0.53291     0.31100
              7  C  1  X      0.13535     0.25986
              8  C  1  Y      0.21718     0.35209
              9  C  1  Z      0.36581     0.45931
             10  C  1 XX      0.01625     0.16245
             11  C  1 YY      0.01421     0.15505
             12  C  1 ZZ      0.02693     0.16659
             13  C  1 XY      0.02420     0.04360
             14  C  1 XZ      0.00702     0.01470
             15  C  1 YZ      0.02030     0.03686
             16  C  2  S      1.99677     1.97400
             17  C  2  S      0.70405     0.36630
             18  C  2  X      0.73705     0.65651
             19  C  2  Y      0.73698     0.64811
             20  C  2  Z      0.40464     0.36647
             21  C  2  S      0.47232     0.30571
             22  C  2  X      0.07529     0.26294
             23  C  2  Y      0.24425     0.38500
             24  C  2  Z      0.25487     0.31151
             25  C  2 XX      0.04311     0.22317
             26  C  2 YY      0.03712     0.19571
             27  C  2 ZZ     -0.02210     0.10272
             28  C  2 XY      0.03238     0.06384
             29  C  2 XZ      0.01738     0.03199
             30  C  2 YZ      0.00580     0.00964
             31  O  3  S      1.99557     1.97762
             32  O  3  S      0.91288     0.71036
             33  O  3  X      0.97912     0.91867
             34  O  3  Y      1.09887     1.05748
             35  O  3  Z      0.76096     0.71553
             36  O  3  S      0.93824     0.46390
             37  O  3  X      0.49900     0.56887
             38  O  3  Y      0.65138     0.68377
             39  O  3  Z      0.57737     0.59781
             40  O  3 XX      0.01465     0.18855
             41  O  3 YY      0.00468     0.17528
             42  O  3 ZZ      0.00137     0.16871
             43  O  3 XY      0.00852     0.01677
             44  O  3 XZ      0.01197     0.01377
             45  O  3 YZ      0.00289     0.00363
             46  H  4  S      0.53444     0.50083
             47  H  4  S      0.28919     0.35899
             48  H  5  S      0.53343     0.49601
             49  H  5  S      0.26898     0.33319
             50  F  6  S      1.99539     1.97788
             51  F  6  S      0.97046     0.85481
             52  F  6  X      1.03013     0.98856
             53  F  6  Y      1.07668     1.03857
             54  F  6  Z      1.18977     1.16210
             55  F  6  S      0.88184     0.51009
             56  F  6  X      0.68446     0.69847
             57  F  6  Y      0.69975     0.72867
             58  F  6  Z      0.75914     0.77967
             59  F  6 XX      0.04034     0.16880
             60  F  6 YY      0.03415     0.16649
             61  F  6 ZZ      0.02745     0.16208
             62  F  6 XY      0.00719     0.00849
             63  F  6 XZ      0.00204     0.00466
             64  F  6 YZ      0.00153     0.00404
             65  H  7  S      0.53344     0.49693
             66  H  7  S      0.26895     0.33325

          ----- MULLIKEN ATOMIC OVERLAP POPULATIONS -----
          (OFF-DIAGONAL ELEMENTS NEED TO BE MULTIPLIED BY 2)

             1           2           3           4           5

    1    4.8615228
    2    0.3152481   4.6162199
    3   -0.0699905   0.5126218   8.0491793
    4   -0.0856280   0.3875406  -0.0418658   0.5513618
    5    0.3830792  -0.0376985   0.0032025   0.0031807   0.5062323
    6    0.1865441  -0.0163054   0.0011298   0.0058498  -0.0265532
    7    0.3830953  -0.0377128   0.0032070   0.0031841  -0.0290378

             6           7

    6    9.2762073
    7   -0.0265512   0.5061971

          TOTAL MULLIKEN AND LOWDIN ATOMIC POPULATIONS
       ATOM         MULL.POP.    CHARGE          LOW.POP.     CHARGE
    1 C             5.973871    0.026129         6.063100   -0.063100
    2 C             5.739914    0.260086         5.903599    0.096401
    3 O             8.457484   -0.457484         8.260714   -0.260714
    4 H             0.823623    0.176377         0.859812    0.140188
    5 H             0.802405    0.197595         0.829203    0.170797
    6 F             9.400321   -0.400321         9.253396   -0.253396
    7 H             0.802382    0.197618         0.830176    0.169824

          -------------------------------
          BOND ORDER AND VALENCE ANALYSIS     BOND ORDER THRESHOLD=0.050
          -------------------------------

                   BOND                       BOND                       BOND
  ATOM PAIR DIST  ORDER      ATOM PAIR DIST  ORDER      ATOM PAIR DIST  ORDER
    1   2  1.511  0.917        1   5  1.082  0.934        1   6  1.364  0.812
    1   7  1.082  0.934        2   3  1.186  1.899        2   4  1.093  0.915

                       TOTAL       BONDED        FREE
      ATOM            VALENCE     VALENCE     VALENCE
    1 C                 3.585       3.585      -0.000
    2 C                 3.738       3.738       0.000
    3 O                 1.929       1.929       0.000
    4 H                 0.923       0.923      -0.000
    5 H                 0.922       0.922      -0.000
    6 F                 0.845       0.845       0.000
    7 H                 0.922       0.922      -0.000

          ---------------------
          ELECTROSTATIC MOMENTS
          ---------------------

 POINT   1           X           Y           Z (BOHR)    CHARGE
                -0.090526   -0.006805    0.444440        0.00 (A.U.)
         DX          DY          DZ         /D/  (DEBYE)
    -1.189564    0.186121   -0.069542    1.206043
 ...... END OF PROPERTY EVALUATION ......
 STEP CPU TIME =     0.01 TOTAL CPU TIME =       31.1 (    0.5 MIN)
 TOTAL WALL CLOCK TIME=       33.4 SECONDS, CPU UTILIZATION IS  93.26%
  $VIB   
          IVIB=   0 IATOM=   0 ICOORD=   0 E=     -251.7583086691
  1.609423863E-07-2.977037643E-06 1.772626165E-05 3.287606737E-05 3.891812883E-05
 -2.911780265E-05-3.520148482E-05-1.766231372E-05 1.183520697E-05 1.639219650E-06
 -2.322585676E-05 1.009445597E-05-3.191462212E-06 8.986574771E-06-6.317809834E-06
 -1.472744905E-06-3.880272766E-07 1.585403456E-06 5.189446596E-06-3.651468583E-06
 -5.805715085E-06
 -1.189563870E+00 1.861212580E-01-6.954226687E-02
 ......END OF GEOMETRY SEARCH......
 STEP CPU TIME =     0.00 TOTAL CPU TIME =       31.1 (    0.5 MIN)
 TOTAL WALL CLOCK TIME=       33.4 SECONDS, CPU UTILIZATION IS  93.26%
               998016  WORDS OF DYNAMIC MEMORY USED
 EXECUTION OF GAMESS TERMINATED NORMALLY Fri Nov  3 17:05:11 2017
 DDI: 263640 bytes (0.3 MB / 0 MWords) used by master data server.

 ----------------------------------------
 CPU timing information for all processes
 ========================================
 0: 29.492 + 1.653 = 31.145
 ----------------------------------------
 ddikick.x: exited gracefully.
