
 Distributed Data Interface kickoff program.
 Initiating 1 compute processes on 1 nodes to run the following command:
 /usr/local/gamess-141205/gamess.00.x /home/webmodemo/webmo/guest/344656/input 

          ******************************************************
          *         GAMESS VERSION =  5 DEC 2014 (R1)          *
          *             FROM IOWA STATE UNIVERSITY             *
          * M.W.SCHMIDT, K.K.BALDRIDGE, J.A.BOATZ, S.T.ELBERT, *
          *   M.S.GORDON, J.H.JENSEN, S.KOSEKI, N.MATSUNAGA,   *
          *          K.A.NGUYEN, S.J.SU, T.L.WINDUS,           *
          *       TOGETHER WITH M.DUPUIS, J.A.MONTGOMERY       *
          *         J.COMPUT.CHEM.  14, 1347-1363(1993)        *
          **************** 64 BIT LINUX VERSION ****************

  SINCE 1993, STUDENTS AND POSTDOCS WORKING AT IOWA STATE UNIVERSITY
  AND ALSO IN THEIR VARIOUS JOBS AFTER LEAVING ISU HAVE MADE IMPORTANT
  CONTRIBUTIONS TO THE CODE:
     IVANA ADAMOVIC, CHRISTINE AIKENS, YURI ALEXEEV, POOJA ARORA,
     ANDREY ASADCHEV, ROB BELL, PRADIPTA BANDYOPADHYAY, JONATHAN BENTZ,
     BRETT BODE, KURT BRORSEN, CALEB CARLIN, GALINA CHABAN, WEI CHEN,
     CHEOL HO CHOI, PAUL DAY, ALBERT DEFUSCO, NUWAN DESILVA, TIM DUDLEY,
     DMITRI FEDOROV, GRAHAM FLETCHER, MARK FREITAG, KURT GLAESEMANN,
     DAN KEMP, GRANT MERRILL, NORIYUKI MINEZAWA, JONATHAN MULLIN,
     TAKESHI NAGATA, SEAN NEDD, HEATHER NETZLOFF, BOSILJKA NJEGIC, RYAN OLSON,
     MIKE PAK, SPENCER PRUITT, LUKE ROSKOP, JIM SHOEMAKER, LYUDMILA SLIPCHENKO,
     TONY SMITH, SAROM SOK, JIE SONG, TETSUYA TAKETSUGU, SIMON WEBB,
     PENG XU, SOOHAENG YOO, FEDERICO ZAHARIEV

  ADDITIONAL CODE HAS BEEN PROVIDED BY COLLABORATORS IN OTHER GROUPS:
     IOWA STATE UNIVERSITY:
          JOE IVANIC, AARON WEST, LAIMUTIS BYTAUTAS, KLAUS RUEDENBERG
     UNIVERSITY OF TOKYO: KIMIHIKO HIRAO, TAKAHITO NAKAJIMA,
          TAKAO TSUNEDA, MUNEAKI KAMIYA, SUSUMU YANAGISAWA,
          KIYOSHI YAGI, MAHITO CHIBA, SEIKEN TOKURA, NAOAKI KAWAKAMI
     UNIVERSITY OF AARHUS: FRANK JENSEN
     UNIVERSITY OF IOWA: VISVALDAS KAIRYS, HUI LI
     NATIONAL INST. OF STANDARDS AND TECHNOLOGY: WALT STEVENS, DAVID GARMER
     UNIVERSITY OF PISA: BENEDETTA MENNUCCI, JACOPO TOMASI
     UNIVERSITY OF MEMPHIS: HENRY KURTZ, PRAKASHAN KORAMBATH
     UNIVERSITY OF ALBERTA: TOBY ZENG, MARIUSZ KLOBUKOWSKI
     UNIVERSITY OF NEW ENGLAND: MARK SPACKMAN
     MIE UNIVERSITY: HIROAKI UMEDA
     NAT. INST. OF ADVANCED INDUSTRIAL SCIENCE AND TECHNOLOGY: KAZUO KITAURA
     MICHIGAN STATE UNIVERSITY:
          KAROL KOWALSKI, MARTA WLOCH, JEFFREY GOUR, JESSE LUTZ,
          WEI LI, PIOTR PIECUCH
     UNIVERSITY OF SILESIA: MONIKA MUSIAL, STANISLAW KUCHARSKI
     FACULTES UNIVERSITAIRES NOTRE-DAME DE LA PAIX:
          OLIVIER QUINET, BENOIT CHAMPAGNE
     UNIVERSITY OF CALIFORNIA - SANTA BARBARA: BERNARD KIRTMAN
     INSTITUTE FOR MOLECULAR SCIENCE:
          KAZUYA ISHIMURA, MICHIO KATOUDA, AND SHIGERU NAGASE
     UNIVERSITY OF NOTRE DAME: ANNA POMOGAEVA, DAN CHIPMAN
     KYUSHU UNIVERSITY:
          HARUYUKI NAKANO,
          FENG LONG GU, JACEK KORCHOWIEC, MARCIN MAKOWSKI, AND YURIKO AOKI,
          HIROTOSHI MORI AND EISAKU MIYOSHI
     PENNSYLVANIA STATE UNIVERSITY:
          TZVETELIN IORDANOV, CHET SWALINA, JONATHAN SKONE,
          SHARON HAMMES-SCHIFFER
     WASEDA UNIVERSITY:
          MASATO KOBAYASHI, TOMOKO AKAMA, TSUGUKI TOUMA,
          TAKESHI YOSHIKAWA, YASUHIRO IKABATA, HIROMI NAKAI
     NANJING UNIVERSITY: SHUHUA LI
     UNIVERSITY OF NEBRASKA:
          PEIFENG SU, DEJUN SI, NANDUN THELLAMUREGE, YALI WANG, HUI LI
     UNIVERSITY OF ZURICH: ROBERTO PEVERATI, KIM BALDRIDGE
     N. COPERNICUS UNIVERSITY AND JACKSON STATE UNIVERSITY:
          MARIA BARYSZ
     UNIVERSITY OF COPENHAGEN: CASPER STEINMANN
     TOKYO INSTITUTE OF TECHNOLOGY: HIROYA NAKATA
     NAGOYA UNIVERSITY: YOSHIO NISHIMOTO, STEPHAN IRLE

 EXECUTION OF GAMESS BEGUN Fri Nov  3 17:29:49 2017

            ECHO OF THE FIRST FEW INPUT CARDS -
 INPUT CARD> $CONTRL SCFTYP=RHF RUNTYP=HESSIAN                                              
 INPUT CARD>       ICHARG=0 MULT=1 COORD=ZMTMPC $END                                        
 INPUT CARD> $BASIS GBASIS=N31 NGAUSS=6 NDFUNC=1 $END                                       
 INPUT CARD> $DATA                                                                          
 INPUT CARD>C2H3OF                                                                          
 INPUT CARD>C1 1                                                                            
 INPUT CARD>C 0.0000000 0 0.0000000 0 0.0000000 0 0 0 0                                     
 INPUT CARD>C 1.5109917 1 0.0000000 0 0.0000000 0 1 0 0                                     
 INPUT CARD>O 1.1856399 1 122.09571 1 0.0000000 0 2 1 0                                     
 INPUT CARD>H 1.0925470 1 115.37262 1 179.98276 1 2 1 3                                     
 INPUT CARD>H 1.0820317 1 109.90304 1 60.164854 1 1 2 3                                     
 INPUT CARD>F 1.3640976 1 109.31906 1 -179.95423 1 1 2 3                                    
 INPUT CARD>H 1.0820025 1 109.89459 1 -60.076029 1 1 2 3                                    
 INPUT CARD> $END                                                                           
 INPUT CARD>                                                                                
 INPUT CARD>                                                                                
    1000000 WORDS OF MEMORY AVAILABLE

     BASIS OPTIONS
     -------------
     GBASIS=N31          IGAUSS=       6      POLAR=POPN31  
     NDFUNC=       1     NFFUNC=       0     DIFFSP=       F
     NPFUNC=       0      DIFFS=       F     BASNAM=        


     RUN TITLE
     ---------
 C2H3OF                                                                          

 THE POINT GROUP OF THE MOLECULE IS C1      
 THE ORDER OF THE PRINCIPAL AXIS IS     1

 YOUR FULLY SUBSTITUTED Z-MATRIX IS
 C   
 C      1   1.5109917
 O      2   1.1856399  1  122.0957
 H      2   1.0925470  1  115.3726  3  179.9828  0
 H      1   1.0820317  2  109.9030  3   60.1649  0
 F      1   1.3640976  2  109.3191  3 -179.9542  0
 H      1   1.0820025  2  109.8946  3  -60.0760  0

 THE MOMENTS OF INERTIA ARE (AMU-ANGSTROM**2)
 IXX=    12.470   IYY=   114.729   IZZ=   124.062

 ATOM      ATOMIC                      COORDINATES (BOHR)
           CHARGE         X                   Y                   Z
 C           6.0     0.9424989153        1.0302703504        0.0003366762
 C           6.0    -1.3369629411       -0.6893621521        0.0005510989
 O           8.0    -3.4304526721        0.1089453105       -0.0004114066
 H           1.0    -0.9197538559       -2.7113832083        0.0010900462
 H           1.0     0.9216825079        2.2138941063        1.6675430664
 F           9.0     3.0883347448       -0.3981168031       -0.0003224997
 H           1.0     0.9207823761        2.2141695338       -1.6665949741

          INTERNUCLEAR DISTANCES (ANGS.)
          ------------------------------

                1 C          2 C          3 O          4 H          5 H     

   1 C       0.0000000    1.5109917 *  2.3648686 *  2.2116797 *  1.0820317 *
   2 C       1.5109917 *  0.0000000    1.1856399 *  1.0925470 *  2.1370663 *
   3 O       2.3648686 *  1.1856399 *  0.0000000    1.9981514 *  2.7062624 *
   4 H       2.2116797 *  1.0925470 *  1.9981514 *  0.0000000    2.9189443 *
   5 H       1.0820317 *  2.1370663 *  2.7062624 *  2.9189443 *  0.0000000  
   6 F       1.3640976 *  2.3468330 *  3.4600141    2.4488947 *  2.0010149 *
   7 H       1.0820025 *  2.1369384 *  2.7056116 *  2.9191125 *  1.7643501 *

                6 F          7 H     

   1 C       1.3640976 *  1.0820025 *
   2 C       2.3468330 *  2.1369384 *
   3 O       3.4600141    2.7056116 *
   4 H       2.4488947 *  2.9191125 *
   5 H       2.0010149 *  1.7643501 *
   6 F       0.0000000    2.0010169 *
   7 H       2.0010169 *  0.0000000  

  * ... LESS THAN  3.000


     ATOMIC BASIS SET
     ----------------
 THE CONTRACTED PRIMITIVE FUNCTIONS HAVE BEEN UNNORMALIZED
 THE CONTRACTED BASIS FUNCTIONS ARE NOW NORMALIZED TO UNITY

  SHELL TYPE  PRIMITIVE        EXPONENT          CONTRACTION COEFFICIENT(S)

 C         

      1   S       1          3047.5248800    0.001834737132
      1   S       2           457.3695180    0.014037322813
      1   S       3           103.9486850    0.068842622264
      1   S       4            29.2101553    0.232184443216
      1   S       5             9.2866630    0.467941348435
      1   S       6             3.1639270    0.362311985337

      2   L       7             7.8682723   -0.119332419775    0.068999066591
      2   L       8             1.8812885   -0.160854151696    0.316423960957
      2   L       9             0.5442493    1.143456437840    0.744308290898

      3   L      10             0.1687145    1.000000000000    1.000000000000

      4   D      11             0.8000000    1.000000000000

 C         

      5   S      12          3047.5248800    0.001834737132
      5   S      13           457.3695180    0.014037322813
      5   S      14           103.9486850    0.068842622264
      5   S      15            29.2101553    0.232184443216
      5   S      16             9.2866630    0.467941348435
      5   S      17             3.1639270    0.362311985337

      6   L      18             7.8682723   -0.119332419775    0.068999066591
      6   L      19             1.8812885   -0.160854151696    0.316423960957
      6   L      20             0.5442493    1.143456437840    0.744308290898

      7   L      21             0.1687145    1.000000000000    1.000000000000

      8   D      22             0.8000000    1.000000000000

 O         

      9   S      23          5484.6716600    0.001831074430
      9   S      24           825.2349460    0.013950172200
      9   S      25           188.0469580    0.068445078098
      9   S      26            52.9645000    0.232714335992
      9   S      27            16.8975704    0.470192897984
      9   S      28             5.7996353    0.358520852987

     10   L      29            15.5396162   -0.110777549525    0.070874268231
     10   L      30             3.5999336   -0.148026262701    0.339752839147
     10   L      31             1.0137618    1.130767015354    0.727158577316

     11   L      32             0.2700058    1.000000000000    1.000000000000

     12   D      33             0.8000000    1.000000000000

 H         

     13   S      34            18.7311370    0.033494604338
     13   S      35             2.8253944    0.234726953484
     13   S      36             0.6401217    0.813757326146

     14   S      37             0.1612778    1.000000000000

 H         

     15   S      38            18.7311370    0.033494604338
     15   S      39             2.8253944    0.234726953484
     15   S      40             0.6401217    0.813757326146

     16   S      41             0.1612778    1.000000000000

 F         

     17   S      42          7001.7130900    0.001819616901
     17   S      43          1051.3660900    0.013916079607
     17   S      44           239.2856900    0.068405324535
     17   S      45            67.3974453    0.233185760119
     17   S      46            21.5199573    0.471267439240
     17   S      47             7.4031013    0.356618546182

     18   L      48            20.8479528   -0.108506975109    0.071628724237
     18   L      49             4.8083083   -0.146451658147    0.345912102697
     18   L      50             1.3440699    1.128688581135    0.722469956367

     19   L      51             0.3581514    1.000000000000    1.000000000000

     20   D      52             0.8000000    1.000000000000

 H         

     21   S      53            18.7311370    0.033494604338
     21   S      54             2.8253944    0.234726953484
     21   S      55             0.6401217    0.813757326146

     22   S      56             0.1612778    1.000000000000

 TOTAL NUMBER OF BASIS SET SHELLS             =   22
 NUMBER OF CARTESIAN GAUSSIAN BASIS FUNCTIONS =   66
 NUMBER OF ELECTRONS                          =   32
 CHARGE OF MOLECULE                           =    0
 SPIN MULTIPLICITY                            =    1
 NUMBER OF OCCUPIED ORBITALS (ALPHA)          =   16
 NUMBER OF OCCUPIED ORBITALS (BETA )          =   16
 TOTAL NUMBER OF ATOMS                        =    7
 THE NUCLEAR REPULSION ENERGY IS      114.7055111158

     $CONTRL OPTIONS
     ---------------
 SCFTYP=RHF          RUNTYP=HESSIAN      EXETYP=RUN     
 MPLEVL=       0     CITYP =NONE         CCTYP =NONE         VBTYP =NONE    
 DFTTYP=NONE         TDDFT =NONE    
 MULT  =       1     ICHARG=       0     NZVAR =       0     COORD =ZMTMPC  
 PP    =NONE         RELWFN=NONE         LOCAL =NONE         NUMGRD=       F
 ISPHER=      -1     NOSYM =       0     MAXIT =      30     UNITS =ANGS    
 PLTORB=       F     MOLPLT=       F     AIMPAC=       F     FRIEND=        
 NPRINT=       7     IREST =       0     GEOM  =INPUT   
 NORMF =       0     NORMP =       0     ITOL  =      20     ICUT  =       9
 INTTYP=BEST         GRDTYP=BEST         QMTTOL= 1.0E-06

     $SYSTEM OPTIONS
     ---------------
  REPLICATED MEMORY=     1000000 WORDS (ON EVERY NODE).
 DISTRIBUTED MEMDDI=           0 MILLION WORDS IN AGGREGATE,
 MEMDDI DISTRIBUTED OVER   1 PROCESSORS IS           0 WORDS/PROCESSOR.
 TOTAL MEMORY REQUESTED ON EACH PROCESSOR=     1000000 WORDS.
 TIMLIM=      525600.00 MINUTES, OR     365.0 DAYS.
 PARALL= F  BALTYP=  DLB     KDIAG=    0  COREFL= F
 MXSEQ2=     300 MXSEQ3=     150  mem10=         0

          ----------------
          PROPERTIES INPUT
          ----------------

     MOMENTS            FIELD           POTENTIAL          DENSITY
 IEMOM =       1   IEFLD =       0   IEPOT =       0   IEDEN =       0
 WHERE =COMASS     WHERE =NUCLEI     WHERE =NUCLEI     WHERE =NUCLEI  
 OUTPUT=BOTH       OUTPUT=BOTH       OUTPUT=BOTH       OUTPUT=BOTH    
 IEMINT=       0   IEFINT=       0                     IEDINT=       0
                                                       MORB  =       0
          EXTRAPOLATION IN EFFECT
          SOSCF IN EFFECT
 ORBITAL PRINTING OPTION: NPREO=     1    66     2     1

     -------------------------------
     INTEGRAL TRANSFORMATION OPTIONS
     -------------------------------
     NWORD  =            0
     CUTOFF = 1.0E-09     MPTRAN =       0
     DIRTRF =       F     AOINTS =DUP     

          ----------------------
          INTEGRAL INPUT OPTIONS
          ----------------------
 NOPK  =       1 NORDER=       0 SCHWRZ=       T

     ------------------------------------------
     THE POINT GROUP IS C1 , NAXIS= 1, ORDER= 1
     ------------------------------------------

     DIMENSIONS OF THE SYMMETRY SUBSPACES ARE
 A   =   66

 ..... DONE SETTING UP THE RUN .....
 STEP CPU TIME =     0.00 TOTAL CPU TIME =        0.0 (    0.0 MIN)
 TOTAL WALL CLOCK TIME=        0.0 SECONDS, CPU UTILIZATION IS   0.00%

     ---------------------------------
     HESSIAN MATRIX CONTROL PARAMETERS
     ---------------------------------
     METHOD=ANALYTIC   NVIB  =       2   VIBSIZ= 0.01000
     RDHESS=       F   PURIFY=       F   PRTIFC=       F
     VIBANL=       T   DECOMP=       F   PROJCT=       F
     SCLFAC= 1.00000   PRTSCN=       F   NPRT  =       0
     PULCOR=       F   NPUN  =       0   REDOVB=       T
     THERMOCHEMISTRY WILL BE PRINTED FOR    1 TEMPERATURES:
      298.15000

     ------------------------------
     CPHF RESPONSE SOLUTION OPTIONS
     ------------------------------
     POLAR  =       F     NWORD  =       0
     CPHF   =AO      

          ********************
          1 ELECTRON INTEGRALS
          ********************
 ...... END OF ONE-ELECTRON INTEGRALS ......
 STEP CPU TIME =     0.00 TOTAL CPU TIME =        0.0 (    0.0 MIN)
 TOTAL WALL CLOCK TIME=        0.0 SECONDS, CPU UTILIZATION IS   0.00%

          -------------
          GUESS OPTIONS
          -------------
          GUESS =HUCKEL            NORB  =       0          NORDER=       0
          MIX   =       F          PRTMO =       F          PUNMO =       F
          TOLZ  = 1.0E-08          TOLE  = 1.0E-05
          SYMDEN=       F          PURIFY=       F

 INITIAL GUESS ORBITALS GENERATED BY HUCKEL   ROUTINE.
 HUCKEL GUESS REQUIRES     39109 WORDS.

 SYMMETRIES FOR INITIAL GUESS ORBITALS FOLLOW.   BOTH SET(S).
    16 ORBITALS ARE OCCUPIED (    4 CORE ORBITALS).
     5=A        6=A        7=A        8=A        9=A       10=A       11=A   
    12=A       13=A       14=A       15=A       16=A       17=A       18=A   
    19=A       20=A       21=A       22=A       23=A       24=A       25=A   
    26=A   
 ...... END OF INITIAL ORBITAL SELECTION ......
 STEP CPU TIME =     0.00 TOTAL CPU TIME =        0.0 (    0.0 MIN)
 TOTAL WALL CLOCK TIME=        0.0 SECONDS, CPU UTILIZATION IS   0.00%

                    ----------------------
                    AO INTEGRAL TECHNOLOGY
                    ----------------------
     S,P,L SHELL ROTATED AXIS INTEGRALS, REPROGRAMMED BY
        KAZUYA ISHIMURA (IMS) AND JOSE SIERRA (SYNSTAR).
     S,P,D,L SHELL ROTATED AXIS INTEGRALS PROGRAMMED BY
        KAZUYA ISHIMURA (INSTITUTE FOR MOLECULAR SCIENCE).
     S,P,D,F,G SHELL TO TOTAL QUARTET ANGULAR MOMENTUM SUM 5,
        ERIC PROGRAM BY GRAHAM FLETCHER (ELORET AND NASA ADVANCED
        SUPERCOMPUTING DIVISION, AMES RESEARCH CENTER).
     S,P,D,F,G,L SHELL GENERAL RYS QUADRATURE PROGRAMMED BY
        MICHEL DUPUIS (PACIFIC NORTHWEST NATIONAL LABORATORY).

          --------------------
          2 ELECTRON INTEGRALS
          --------------------

 THE -PK- OPTION IS OFF, THE INTEGRALS ARE NOT IN SUPERMATRIX FORM.
 STORING   15000 INTEGRALS/RECORD ON DISK, USING 12 BYTES/INTEGRAL.
 TWO ELECTRON INTEGRAL EVALUATION REQUIRES   90649 WORDS OF MEMORY.
 SCHWARZ INEQUALITY OVERHEAD:      2200 INTEGRALS, T=        0.00
 II,JST,KST,LST =  1  1  1  1 NREC =         1 INTLOC =    1
 II,JST,KST,LST =  2  1  1  1 NREC =         1 INTLOC =    2
 II,JST,KST,LST =  3  1  1  1 NREC =         1 INTLOC =   34
 II,JST,KST,LST =  4  1  1  1 NREC =         1 INTLOC =  214
 II,JST,KST,LST =  5  1  1  1 NREC =         1 INTLOC = 1189
 II,JST,KST,LST =  6  1  1  1 NREC =         1 INTLOC = 3192
 II,JST,KST,LST =  7  1  1  1 NREC =         2 INTLOC =  902
 II,JST,KST,LST =  8  1  1  1 NREC =         3 INTLOC = 8089
 II,JST,KST,LST =  9  1  1  1 NREC =         7 INTLOC = 5889
 II,JST,KST,LST = 10  1  1  1 NREC =         8 INTLOC = 2501
 II,JST,KST,LST = 11  1  1  1 NREC =        12 INTLOC =13281
 II,JST,KST,LST = 12  1  1  1 NREC =        19 INTLOC =11349
 II,JST,KST,LST = 13  1  1  1 NREC =        34 INTLOC = 2497
 II,JST,KST,LST = 14  1  1  1 NREC =        37 INTLOC = 4401
 II,JST,KST,LST = 15  1  1  1 NREC =        40 INTLOC =10614
 II,JST,KST,LST = 16  1  1  1 NREC =        44 INTLOC = 4641
 II,JST,KST,LST = 17  1  1  1 NREC =        48 INTLOC = 3147
 II,JST,KST,LST = 18  1  1  1 NREC =        50 INTLOC = 6528
 II,JST,KST,LST = 19  1  1  1 NREC =        63 INTLOC = 1886
 II,JST,KST,LST = 20  1  1  1 NREC =        83 INTLOC = 3404
 II,JST,KST,LST = 21  1  1  1 NREC =       117 INTLOC = 7456
 II,JST,KST,LST = 22  1  1  1 NREC =       125 INTLOC =13088
 SCHWARZ INEQUALITY TEST SKIPPED        2561 INTEGRAL BLOCKS.
 TOTAL NUMBER OF NONZERO TWO-ELECTRON INTEGRALS =             2009009
        134 INTEGRAL RECORDS WERE STORED ON DISK FILE  8.
  ...... END OF TWO-ELECTRON INTEGRALS .....
 STEP CPU TIME =     0.18 TOTAL CPU TIME =        0.2 (    0.0 MIN)
 TOTAL WALL CLOCK TIME=        0.2 SECONDS, CPU UTILIZATION IS  94.74%

          --------------------------
                 RHF SCF CALCULATION
          --------------------------

     NUCLEAR ENERGY =       114.7055111158
     MAXIT =   30     NPUNCH=    2
     EXTRAP=T  DAMP=F  SHIFT=F  RSTRCT=F  DIIS=F  DEM=F  SOSCF=T
     DENSITY MATRIX CONV=  1.00E-05
     SOSCF WILL OPTIMIZE     800 ORBITAL ROTATIONS, SOGTOL=   0.250
     MEMORY REQUIRED FOR RHF ITERS=     64616 WORDS.

 ITER EX DEM     TOTAL ENERGY        E CHANGE  DENSITY CHANGE     ORB. GRAD
   1  0  0     -251.0159117884  -251.0159117884   0.296102194   0.000000000
          ---------------START SECOND ORDER SCF---------------
   2  1  0     -251.6883717951    -0.6724600067   0.167148194   0.066745273
   3  2  0     -251.7250066414    -0.0366348462   0.070825412   0.052476526
   4  3  0     -251.7576386270    -0.0326319857   0.010464794   0.004895273
   5  4  0     -251.7582293158    -0.0005906887   0.005217304   0.002208013
   6  5  0     -251.7583008992    -0.0000715834   0.001651706   0.000694068
   7  6  0     -251.7583075144    -0.0000066152   0.000564829   0.000231893
   8  7  0     -251.7583085354    -0.0000010210   0.000178482   0.000068761
   9  8  0     -251.7583086564    -0.0000001210   0.000074195   0.000022204
  10  9  0     -251.7583086695    -0.0000000131   0.000012242   0.000004365
  11 10  0     -251.7583086702    -0.0000000007   0.000003049   0.000001390
  12 11  0     -251.7583086702    -0.0000000000   0.000000831   0.000000267

          -----------------
          DENSITY CONVERGED
          -----------------
     TIME TO FORM FOCK OPERATORS=       0.4 SECONDS (       0.0 SEC/ITER)
     TIME TO SOLVE SCF EQUATIONS=       0.0 SECONDS (       0.0 SEC/ITER)

 FINAL RHF ENERGY IS     -251.7583086702 AFTER  12 ITERATIONS

          ------------
          EIGENVECTORS
          ------------

                      1          2          3          4          5
                  -26.3016   -20.5851   -11.3471   -11.3288    -1.6146
                     A          A          A          A          A   
    1  C  1  S   -0.000027   0.000002   0.017615   0.995683  -0.056428
    2  C  1  S    0.000186   0.000013   0.000688   0.027651   0.100694
    3  C  1  X    0.000475   0.000028   0.000050   0.001058   0.069924
    4  C  1  Y   -0.000328  -0.000006   0.000139  -0.000886  -0.048825
    5  C  1  Z   -0.000000   0.000000   0.000000  -0.000000  -0.000022
    6  C  1  S    0.000414  -0.000154   0.002139  -0.013488   0.018129
    7  C  1  X   -0.000242   0.000031  -0.000625   0.001372   0.007693
    8  C  1  Y   -0.000059   0.000077  -0.001293   0.000307   0.003687
    9  C  1  Z    0.000000  -0.000000   0.000000  -0.000000   0.000001
   10  C  1 XX    0.000211  -0.000060  -0.000467  -0.001312   0.012396
   11  C  1 YY    0.000069   0.000048  -0.000340  -0.001496   0.002029
   12  C  1 ZZ   -0.000083  -0.000021  -0.000133  -0.001612  -0.006661
   13  C  1 XY   -0.000180   0.000007  -0.000201  -0.000299  -0.016523
   14  C  1 XZ   -0.000000  -0.000000   0.000000  -0.000000  -0.000007
   15  C  1 YZ    0.000000  -0.000000   0.000000   0.000000   0.000005
   16  C  2  S    0.000003  -0.000006   0.995527  -0.017935  -0.009381
   17  C  2  S    0.000089   0.000363   0.027086  -0.000512   0.016224
   18  C  2  X   -0.000005   0.000206  -0.000699   0.000114   0.011617
   19  C  2  Y    0.000000  -0.000077   0.000410  -0.000034   0.006048
   20  C  2  Z    0.000000   0.000000  -0.000000   0.000000  -0.000003
   21  C  2  S   -0.000269  -0.000386  -0.007499   0.003643   0.018710
   22  C  2  X   -0.000219   0.000672  -0.002746   0.001967   0.010226
   23  C  2  Y   -0.000213  -0.000226   0.000833   0.001211   0.007365
   24  C  2  Z    0.000000   0.000000  -0.000001  -0.000000  -0.000003
   25  C  2 XX   -0.000102  -0.000791  -0.001043  -0.000413   0.004862
   26  C  2 YY   -0.000022  -0.000141  -0.001893  -0.000199   0.000929
   27  C  2 ZZ    0.000004  -0.000006  -0.002647  -0.000146  -0.001464
   28  C  2 XY   -0.000005   0.000332  -0.000412  -0.000129   0.002188
   29  C  2 XZ    0.000000  -0.000000   0.000001   0.000000  -0.000000
   30  C  2 YZ    0.000000   0.000000  -0.000000   0.000000  -0.000001
   31  O  3  S    0.000004   0.994672  -0.000412  -0.000040  -0.003158
   32  O  3  S    0.000018   0.021030   0.000506  -0.000263   0.007644
   33  O  3  X    0.000015   0.001566   0.000311  -0.000036   0.003147
   34  O  3  Y   -0.000014  -0.000571  -0.000141  -0.000040  -0.000247
   35  O  3  Z    0.000000   0.000001   0.000000  -0.000000   0.000000
   36  O  3  S   -0.000043   0.004847  -0.002407   0.001020   0.003712
   37  O  3  X    0.000036   0.000115  -0.001505   0.000304  -0.001647
   38  O  3  Y    0.000042  -0.000067   0.000673  -0.000249  -0.002106
   39  O  3  Z   -0.000000   0.000000  -0.000001   0.000000   0.000001
   40  O  3 XX    0.000031  -0.003550  -0.000018  -0.000029  -0.000086
   41  O  3 YY    0.000007  -0.003887   0.000020  -0.000086   0.000191
   42  O  3 ZZ    0.000009  -0.004258   0.000289  -0.000276   0.000445
   43  O  3 XY   -0.000011  -0.000179   0.000033  -0.000034   0.000107
   44  O  3 XZ    0.000000   0.000000  -0.000000   0.000000  -0.000000
   45  O  3 YZ   -0.000000  -0.000000   0.000000  -0.000000   0.000000
   46  H  4  S    0.000034  -0.000025  -0.000068  -0.000165   0.003061
   47  H  4  S   -0.000142  -0.000158   0.002371   0.000177   0.004031
   48  H  5  S   -0.000025   0.000016  -0.000097   0.000128   0.015891
   49  H  5  S   -0.000085  -0.000022   0.000399   0.002497   0.001600
   50  F  6  S    0.994421   0.000005  -0.000019  -0.000154  -0.220572
   51  F  6  S    0.017795   0.000038  -0.000151   0.000062   0.512890
   52  F  6  X   -0.000769  -0.000012   0.000070  -0.000268  -0.055432
   53  F  6  Y    0.000500  -0.000008   0.000037   0.000180   0.034770
   54  F  6  Z    0.000000   0.000000   0.000000   0.000000   0.000017
   55  F  6  S    0.008107  -0.000096   0.000161   0.001101   0.436908
   56  F  6  X    0.000543   0.000041  -0.000179   0.000843  -0.036723
   57  F  6  Y   -0.000350   0.000041  -0.000107  -0.000615   0.021220
   58  F  6  Z   -0.000000   0.000000  -0.000000  -0.000000   0.000011
   59  F  6 XX   -0.004895  -0.000001   0.000040  -0.000798   0.033538
   60  F  6 YY   -0.004692   0.000039  -0.000089  -0.000328   0.025927
   61  F  6 ZZ   -0.004541   0.000030  -0.000181   0.000111   0.020944
   62  F  6 XY    0.000277  -0.000023   0.000052   0.000640  -0.008783
   63  F  6 XZ    0.000000   0.000000  -0.000000   0.000000  -0.000004
   64  F  6 YZ   -0.000000   0.000000  -0.000000  -0.000000   0.000003
   65  H  7  S   -0.000025   0.000016  -0.000097   0.000128   0.015891
   66  H  7  S   -0.000085  -0.000022   0.000399   0.002498   0.001601

                      6          7          8          9         10
                   -1.4265    -1.0196    -0.8374    -0.7287    -0.7241
                     A          A          A          A          A   
    1  C  1  S   -0.013980  -0.165707   0.065022   0.000002  -0.004478
    2  C  1  S    0.027416   0.331409  -0.126926   0.000001   0.004530
    3  C  1  X   -0.028951  -0.081210  -0.116768   0.000581  -0.247391
    4  C  1  Y   -0.009168  -0.008668  -0.163510  -0.000185   0.128760
    5  C  1  Z   -0.000001   0.000012   0.000038   0.304789   0.000648
    6  C  1  S    0.011854   0.272920  -0.152788  -0.000109   0.070970
    7  C  1  X   -0.008317  -0.034581  -0.023489   0.000177  -0.063036
    8  C  1  Y    0.003078   0.014596  -0.052634  -0.000029   0.025064
    9  C  1  Z   -0.000007   0.000012   0.000003   0.163780   0.000335
   10  C  1 XX    0.004961  -0.000621   0.003432   0.000025  -0.011779
   11  C  1 YY    0.001244   0.007478   0.004665   0.000001  -0.003136
   12  C  1 ZZ    0.000307   0.010748  -0.014069  -0.000021   0.013424
   13  C  1 XY    0.005614   0.009959   0.012557  -0.000047   0.026029
   14  C  1 XZ    0.000001   0.000004  -0.000005   0.009213   0.000030
   15  C  1 YZ   -0.000000  -0.000003   0.000000   0.011448   0.000013
   16  C  2  S   -0.116274  -0.079983  -0.127022   0.000034  -0.019075
   17  C  2  S    0.220250   0.168843   0.266990  -0.000084   0.047061
   18  C  2  X   -0.169001   0.173982   0.078492  -0.000059   0.008735
   19  C  2  Y    0.069523   0.044390  -0.157941  -0.000520   0.229123
   20  C  2  Z   -0.000080   0.000024   0.000056   0.072732   0.000105
   21  C  2  S    0.069849   0.133192   0.249722   0.000021  -0.005555
   22  C  2  X    0.017257   0.031384   0.061975  -0.000025   0.001259
   23  C  2  Y   -0.014189  -0.002191  -0.060497  -0.000174   0.082267
   24  C  2  Z    0.000010   0.000007   0.000032   0.024000   0.000041
   25  C  2 XX    0.025311   0.003446  -0.002476   0.000013  -0.005091
   26  C  2 YY   -0.009426   0.012886   0.017783   0.000006  -0.001216
   27  C  2 ZZ   -0.017615  -0.005302  -0.010174  -0.000001  -0.001194
   28  C  2 XY   -0.019939   0.015322  -0.003249  -0.000004   0.000617
   29  C  2 XZ    0.000023  -0.000004   0.000002   0.001842   0.000004
   30  C  2 YZ   -0.000009  -0.000004  -0.000007   0.005468   0.000010
   31  O  3  S   -0.195241   0.055899   0.064284  -0.000064   0.030149
   32  O  3  S    0.431488  -0.121915  -0.151283   0.000148  -0.069192
   33  O  3  X    0.135622   0.037107   0.104997  -0.000417   0.184656
   34  O  3  Y   -0.049311   0.021051  -0.107452  -0.000305   0.129597
   35  O  3  Z    0.000059   0.000001   0.000063   0.055982   0.000149
   36  O  3  S    0.375961  -0.160133  -0.189750   0.000249  -0.119926
   37  O  3  X    0.047326   0.010803   0.056881  -0.000233   0.102882
   38  O  3  Y   -0.014630   0.008008  -0.054297  -0.000172   0.074223
   39  O  3  Z    0.000020  -0.000002   0.000034   0.034161   0.000088
   40  O  3 XX    0.016839   0.003085   0.002359  -0.000040   0.016426
   41  O  3 YY    0.000204  -0.001116  -0.000469   0.000019  -0.008563
   42  O  3 ZZ   -0.001773   0.002408  -0.002408   0.000010  -0.002660
   43  O  3 XY   -0.007769   0.001881  -0.009404  -0.000012   0.005707
   44  O  3 XZ    0.000010  -0.000001   0.000004   0.005663   0.000019
   45  O  3 YZ   -0.000003   0.000002  -0.000004  -0.002056  -0.000001
   46  H  4  S    0.027211   0.053484   0.186212   0.000223  -0.091561
   47  H  4  S   -0.011486   0.001353   0.078367   0.000118  -0.044542
   48  H  5  S    0.005709   0.113282  -0.096700   0.129291   0.048692
   49  H  5  S    0.000085   0.020160  -0.041555   0.063284   0.027709
   50  F  6  S    0.010183   0.061826  -0.019171   0.000068  -0.035290
   51  F  6  S   -0.021604  -0.134444   0.036984  -0.000143   0.074683
   52  F  6  X   -0.003102  -0.152970   0.023650  -0.000503   0.376509
   53  F  6  Y   -0.000665   0.077113  -0.203794   0.000470  -0.218022
   54  F  6  Z   -0.000000   0.000044  -0.000010   0.475710   0.000852
   55  F  6  S   -0.025515  -0.204486   0.082077  -0.000270   0.138902
   56  F  6  X    0.001369  -0.089376   0.015796  -0.000354   0.263488
   57  F  6  Y    0.001570   0.045922  -0.127814   0.000322  -0.150079
   58  F  6  Z    0.000001   0.000025  -0.000006   0.319632   0.000572
   59  F  6 XX   -0.000331   0.011633  -0.001842   0.000025  -0.020066
   60  F  6 YY    0.000125   0.001288  -0.010190   0.000011  -0.004111
   61  F  6 ZZ    0.000283  -0.004027  -0.000243   0.000001   0.005188
   62  F  6 XY   -0.000320  -0.010037   0.010846  -0.000030   0.017107
   63  F  6 XZ   -0.000000  -0.000005   0.000001  -0.018067  -0.000027
   64  F  6 YZ    0.000000   0.000003  -0.000003   0.011306   0.000017
   65  H  7  S    0.005714   0.113288  -0.096721  -0.129406   0.048207
   66  H  7  S    0.000080   0.020158  -0.041568  -0.063341   0.027465

                     11         12         13         14         15
                   -0.7062    -0.6529    -0.5937    -0.5830    -0.5160
                     A          A          A          A          A   
    1  C  1  S    0.001690   0.019350   0.023656  -0.000008   0.000000
    2  C  1  S   -0.005203  -0.034815  -0.039685   0.000017  -0.000001
    3  C  1  X    0.093044   0.088829  -0.064413  -0.000039  -0.000053
    4  C  1  Y    0.193678  -0.141716  -0.209536   0.000116   0.000037
    5  C  1  Z   -0.000088  -0.000030  -0.000063  -0.228974  -0.271925
    6  C  1  S    0.009028  -0.084154  -0.105141   0.000032   0.000017
    7  C  1  X    0.065249   0.024063   0.016832  -0.000005  -0.000031
    8  C  1  Y    0.089420  -0.046272  -0.070961   0.000033   0.000026
    9  C  1  Z   -0.000060  -0.000003  -0.000008  -0.066606  -0.140333
   10  C  1 XX    0.001322   0.020664   0.027949  -0.000006   0.000004
   11  C  1 YY   -0.009326  -0.004596  -0.012071   0.000010   0.000005
   12  C  1 ZZ    0.011909  -0.015523  -0.019437  -0.000001  -0.000010
   13  C  1 XY    0.001561  -0.013806   0.012239  -0.000007  -0.000013
   14  C  1 XZ   -0.000002  -0.000003  -0.000008   0.019101   0.004306
   15  C  1 YZ   -0.000005   0.000004  -0.000009  -0.023387  -0.032126
   16  C  2  S   -0.038949  -0.021352  -0.032531   0.000016  -0.000004
   17  C  2  S    0.088686   0.060186   0.067222  -0.000032   0.000008
   18  C  2  X   -0.178837  -0.218323   0.238138   0.000029  -0.000052
   19  C  2  Y   -0.160660   0.239373   0.066337  -0.000155   0.000024
   20  C  2  Z    0.000001  -0.000155  -0.000007  -0.233048   0.216698
   21  C  2  S    0.095590  -0.024093   0.185788  -0.000083  -0.000010
   22  C  2  X   -0.051500  -0.023484   0.040324   0.000026  -0.000038
   23  C  2  Y   -0.055171   0.076597   0.077710  -0.000081   0.000027
   24  C  2  Z    0.000016  -0.000039  -0.000026  -0.132909   0.148930
   25  C  2 XX   -0.000550   0.013847  -0.008017  -0.000016   0.000012
   26  C  2 YY    0.003936  -0.020104   0.016100  -0.000002   0.000012
   27  C  2 ZZ   -0.003997  -0.006236   0.000368   0.000020  -0.000021
   28  C  2 XY   -0.006359  -0.013037  -0.000833   0.000011  -0.000011
   29  C  2 XZ    0.000006   0.000011   0.000000   0.016946  -0.032794
   30  C  2 YZ   -0.000003  -0.000003  -0.000011  -0.014608   0.005311
   31  O  3  S    0.045941   0.055006  -0.012134  -0.000001   0.000001
   32  O  3  S   -0.096567  -0.125826   0.035435  -0.000005  -0.000014
   33  O  3  X    0.145855   0.433355  -0.070645   0.000057  -0.000186
   34  O  3  Y   -0.233252  -0.016828   0.295127  -0.000178   0.000121
   35  O  3  Z    0.000130   0.000132  -0.000190  -0.302434   0.397197
   36  O  3  S   -0.217284  -0.247788   0.020407   0.000031   0.000028
   37  O  3  X    0.065898   0.246105  -0.049383   0.000054  -0.000117
   38  O  3  Y   -0.126171  -0.005942   0.194496  -0.000120   0.000086
   39  O  3  Z    0.000061   0.000073  -0.000135  -0.208746   0.287152
   40  O  3 XX    0.007447   0.028906   0.000785   0.000009  -0.000024
   41  O  3 YY    0.007820  -0.009615  -0.004223   0.000006  -0.000008
   42  O  3 ZZ    0.000222  -0.006246   0.005043  -0.000023   0.000021
   43  O  3 XY   -0.016449  -0.005416   0.017578  -0.000016   0.000013
   44  O  3 XZ    0.000008   0.000015  -0.000014  -0.025568   0.030519
   45  O  3 YZ   -0.000009  -0.000000   0.000012   0.008775  -0.011451
   46  H  4  S    0.099429  -0.131505   0.034624   0.000039   0.000029
   47  H  4  S    0.043487  -0.099506   0.016994   0.000045   0.000046
   48  H  5  S    0.058800  -0.071606  -0.107450  -0.128952  -0.164099
   49  H  5  S    0.030774  -0.048998  -0.076161  -0.117872  -0.135202
   50  F  6  S   -0.002569   0.009136   0.001084   0.000001  -0.000001
   51  F  6  S    0.012545  -0.014525   0.000680   0.000002  -0.000002
   52  F  6  X    0.283438  -0.218127   0.204967   0.000114   0.000017
   53  F  6  Y    0.325378   0.125057   0.415269  -0.000141  -0.000032
   54  F  6  Z   -0.000218   0.000244   0.000100   0.392834   0.239836
   55  F  6  S   -0.006178  -0.044726  -0.014291  -0.000018   0.000015
   56  F  6  X    0.201368  -0.154496   0.156171   0.000091   0.000011
   57  F  6  Y    0.222583   0.092578   0.313621  -0.000109  -0.000029
   58  F  6  Z   -0.000152   0.000177   0.000074   0.303846   0.199699
   59  F  6 XX   -0.015322   0.012317  -0.007189  -0.000003  -0.000002
   60  F  6 YY    0.017048   0.003317   0.011760   0.000000  -0.000003
   61  F  6 ZZ    0.004465  -0.000500  -0.000518   0.000009  -0.000001
   62  F  6 XY   -0.005442  -0.009378  -0.006882   0.000005   0.000000
   63  F  6 XZ    0.000012  -0.000010  -0.000001  -0.009370  -0.004487
   64  F  6 YZ   -0.000001   0.000006   0.000004   0.004805   0.001255
   65  H  7  S    0.058867  -0.071604  -0.107378   0.129049   0.164095
   66  H  7  S    0.030795  -0.049000  -0.076066   0.117950   0.135168

                     16         17         18         19         20
                   -0.4364     0.1365     0.2397     0.2748     0.3146
                     A          A          A          A          A   
    1  C  1  S    0.031601   0.000018  -0.094398   0.067001  -0.056059
    2  C  1  S   -0.068883  -0.000040   0.068841  -0.082137   0.092385
    3  C  1  X    0.195537  -0.000021  -0.136137  -0.186372   0.141201
    4  C  1  Y    0.193309   0.000062   0.197835  -0.098418  -0.105698
    5  C  1  Z   -0.000001   0.025483   0.000078  -0.000136   0.001166
    6  C  1  S   -0.181595  -0.000073   1.950241  -1.018605   0.342748
    7  C  1  X    0.065569  -0.000151  -0.600857  -0.479954   1.020711
    8  C  1  Y    0.150446  -0.000001   0.722850  -0.756568  -0.385063
    9  C  1  Z    0.000001   0.278554   0.000233  -0.000427   0.004337
   10  C  1 XX   -0.013064   0.000009   0.001937   0.014670   0.005404
   11  C  1 YY    0.003850  -0.000009  -0.011388  -0.008713   0.006850
   12  C  1 ZZ    0.007298  -0.000003  -0.018139  -0.002340   0.016452
   13  C  1 XY   -0.014467  -0.000015  -0.006036  -0.023228   0.007170
   14  C  1 XZ    0.000006  -0.020871  -0.000000  -0.000004   0.000004
   15  C  1 YZ    0.000003  -0.031051   0.000008   0.000012  -0.000014
   16  C  2  S    0.004737  -0.000013   0.047816   0.070892   0.065841
   17  C  2  S   -0.026109   0.000010  -0.002722  -0.120378  -0.059643
   18  C  2  X   -0.094649  -0.000115  -0.056575  -0.094736   0.007480
   19  C  2  Y   -0.196694   0.000111   0.078541   0.173099   0.218146
   20  C  2  Z    0.000045   0.411252  -0.000068  -0.000081  -0.000250
   21  C  2  S   -0.022076   0.000010  -1.041886  -0.987127  -1.133621
   22  C  2  X    0.046366  -0.000167  -0.263738  -0.855746   0.373540
   23  C  2  Y   -0.095372   0.000053  -0.017066   0.837709   0.927511
   24  C  2  Z    0.000032   0.642979  -0.000217  -0.000231  -0.001376
   25  C  2 XX   -0.034114  -0.000024  -0.006790   0.000246   0.021481
   26  C  2 YY    0.035916  -0.000007   0.026885   0.004108  -0.014327
   27  C  2 ZZ   -0.001450   0.000023  -0.001804   0.001517  -0.001479
   28  C  2 XY   -0.044121   0.000015   0.010432   0.002174  -0.006663
   29  C  2 XZ    0.000003   0.030570  -0.000002  -0.000001   0.000031
   30  C  2 YZ   -0.000023  -0.013027   0.000004  -0.000001   0.000019
   31  O  3  S   -0.000937   0.000002   0.001378   0.028688  -0.035647
   32  O  3  S   -0.012958  -0.000029  -0.015967   0.000251   0.087764
   33  O  3  X    0.193776   0.000095  -0.018233  -0.023303   0.096163
   34  O  3  Y    0.476897  -0.000136  -0.013682  -0.071408  -0.042686
   35  O  3  Z   -0.000097  -0.353961  -0.000010  -0.000007   0.000383
   36  O  3  S    0.071735   0.000090   0.068533  -0.677831   0.391447
   37  O  3  X    0.171423   0.000179   0.028772  -0.223138   0.163679
   38  O  3  Y    0.377319  -0.000164  -0.031852  -0.067686  -0.273817
   39  O  3  Z   -0.000062  -0.495623   0.000058  -0.000139   0.000644
   40  O  3 XX    0.006578  -0.000006   0.003165   0.004454   0.013377
   41  O  3 YY   -0.014260  -0.000007  -0.000631   0.024301  -0.000148
   42  O  3 ZZ   -0.005437  -0.000008  -0.009578   0.020748  -0.002886
   43  O  3 XY    0.013434   0.000001   0.004244   0.010495  -0.011485
   44  O  3 XZ    0.000001  -0.001604   0.000007  -0.000014   0.000013
   45  O  3 YZ    0.000008  -0.001101   0.000004   0.000003  -0.000012
   46  H  4  S    0.182244  -0.000029   0.066240   0.014289  -0.026225
   47  H  4  S    0.216889  -0.000124   0.730322   1.565861   1.519159
   48  H  5  S    0.048191  -0.085011  -0.024451  -0.007074   0.019197
   49  H  5  S    0.070454  -0.460210  -1.262873   0.889540  -0.133295
   50  F  6  S   -0.002182  -0.000021  -0.026610  -0.027602   0.070792
   51  F  6  S   -0.013928   0.000050   0.029349   0.030626  -0.055739
   52  F  6  X   -0.103783  -0.000117  -0.056087  -0.093516   0.164607
   53  F  6  Y   -0.075105   0.000017   0.034478   0.125995  -0.080796
   54  F  6  Z   -0.000008  -0.026429   0.000008   0.000057  -0.000313
   55  F  6  S    0.063393   0.000167   0.295538   0.269122  -0.871663
   56  F  6  X   -0.100418  -0.000131  -0.115214  -0.121149   0.356663
   57  F  6  Y   -0.059759   0.000062   0.044664   0.198235  -0.245685
   58  F  6  Z    0.000001  -0.042530   0.000025   0.000099  -0.000705
   59  F  6 XX   -0.006825   0.000001  -0.004989  -0.015688   0.021900
   60  F  6 YY   -0.006721   0.000008  -0.005511  -0.011348   0.034170
   61  F  6 ZZ   -0.007469   0.000004  -0.015270  -0.010077   0.038162
   62  F  6 XY   -0.001801  -0.000008  -0.006474   0.000376   0.015819
   63  F  6 XZ   -0.000001  -0.002183  -0.000004   0.000006  -0.000011
   64  F  6 YZ    0.000000  -0.006181   0.000003  -0.000001  -0.000010
   65  H  7  S    0.048161   0.084965  -0.024482  -0.007090   0.019240
   66  H  7  S    0.070459   0.460255  -1.262918   0.888208  -0.123255

                     21         22         23         24         25
                    0.3219     0.4357     0.4759     0.7306     0.7408
                     A          A          A          A          A   
    1  C  1  S    0.000187   0.102459   0.060193  -0.024403   0.000020
    2  C  1  S   -0.000297  -0.073086  -0.077335   0.345260  -0.000206
    3  C  1  X   -0.000460  -0.103127   0.150230  -0.211410  -0.000274
    4  C  1  Y    0.000179   0.100236   0.198613  -0.850824   0.000475
    5  C  1  Z    0.415117  -0.000031   0.000153   0.000139   0.159877
    6  C  1  S   -0.001443  -2.154760  -0.984975   0.160426  -0.000248
    7  C  1  X   -0.003108   0.222118   1.537364   0.169523   0.000096
    8  C  1  Y    0.000622   1.625572   0.642440   1.251573  -0.000750
    9  C  1  Z    1.506735  -0.000037   0.000330  -0.000443  -0.360644
   10  C  1 XX   -0.000020   0.008998   0.038587   0.005938   0.000019
   11  C  1 YY   -0.000020   0.017441   0.001182   0.052143  -0.000052
   12  C  1 ZZ   -0.000047  -0.038981  -0.032305  -0.030049   0.000042
   13  C  1 XY   -0.000033   0.008331   0.013119   0.064261  -0.000081
   14  C  1 XZ    0.002544  -0.000013  -0.000019  -0.000008  -0.017792
   15  C  1 YZ    0.001594  -0.000010   0.000029   0.000018   0.025691
   16  C  2  S   -0.000144  -0.032903  -0.095670   0.048692  -0.000009
   17  C  2  S    0.000126   0.079248   0.009512   0.200199   0.000039
   18  C  2  X   -0.000049   0.213241   0.131678   0.150885  -0.000459
   19  C  2  Y   -0.000681   0.149857   0.324704   0.122369   0.000118
   20  C  2  Z   -0.100385  -0.000047   0.000019   0.000562   1.030109
   21  C  2  S    0.002654  -0.022408   2.848005  -0.119729  -0.000265
   22  C  2  X   -0.001377   2.524615  -0.647110  -0.314402   0.000610
   23  C  2  Y   -0.002747   0.249916   1.702763  -0.650025   0.000204
   24  C  2  Z   -0.530164   0.000325  -0.001044  -0.000364  -1.003419
   25  C  2 XX   -0.000035  -0.006862  -0.004975   0.123473  -0.000048
   26  C  2 YY    0.000048   0.015983  -0.008203   0.056907   0.000032
   27  C  2 ZZ   -0.000011  -0.006365   0.018256  -0.049407   0.000006
   28  C  2 XY    0.000014   0.003619  -0.006002   0.071789  -0.000020
   29  C  2 XZ    0.005988  -0.000007  -0.000000  -0.000005  -0.012838
   30  C  2 YZ    0.011344   0.000012   0.000020  -0.000032   0.014438
   31  O  3  S    0.000108  -0.071600   0.083339  -0.008263  -0.000002
   32  O  3  S   -0.000259  -0.039380  -0.065032   0.017606   0.000090
   33  O  3  X   -0.000278  -0.040398  -0.131875   0.053191  -0.000041
   34  O  3  Y    0.000105  -0.155357  -0.015400   0.072405  -0.000009
   35  O  3  Z    0.131926   0.000059  -0.000042  -0.000072   0.014654
   36  O  3  S   -0.001309   1.914920  -1.837077   0.049757  -0.000029
   37  O  3  X   -0.000550   0.479947  -0.850822   0.099360  -0.000013
   38  O  3  Y    0.000880  -0.522151   0.007602   0.162177  -0.000116
   39  O  3  Z    0.220837   0.000472  -0.000241  -0.000001   0.056590
   40  O  3 XX   -0.000051  -0.016270  -0.003302  -0.018978  -0.000004
   41  O  3 YY    0.000010  -0.065460   0.023225   0.009144   0.000012
   42  O  3 ZZ    0.000007  -0.073230   0.056876  -0.016051   0.000096
   43  O  3 XY    0.000043  -0.016227   0.024614   0.022513   0.000008
   44  O  3 XZ    0.000912   0.000030  -0.000023   0.000040   0.081806
   45  O  3 YZ   -0.001166   0.000000   0.000022  -0.000022  -0.032989
   46  H  4  S    0.000102   0.049206  -0.118939   0.080875   0.000092
   47  H  4  S   -0.004047   0.174099   0.710262  -0.169486   0.000107
   48  H  5  S    0.006792  -0.057102  -0.082495  -0.162005   0.146850
   49  H  5  S   -1.642618   0.010018  -0.223051  -0.110250   0.190488
   50  F  6  S   -0.000225  -0.051890   0.009946  -0.002077  -0.000001
   51  F  6  S    0.000159  -0.045313   0.055141  -0.063925   0.000035
   52  F  6  X   -0.000511  -0.109516  -0.124442   0.073123  -0.000079
   53  F  6  Y    0.000331   0.097311  -0.101307  -0.139978   0.000179
   54  F  6  Z   -0.078593   0.000026   0.000025   0.000034   0.079594
   55  F  6  S    0.002809   0.898828  -0.337024   0.303218  -0.000244
   56  F  6  X   -0.001146  -0.378345  -0.101080  -0.111345   0.000089
   57  F  6  Y    0.000882   0.138580  -0.226248  -0.111129   0.000066
   58  F  6  Z   -0.189672   0.000125  -0.000069   0.000073   0.034018
   59  F  6 XX   -0.000080  -0.045793   0.013441   0.050457  -0.000053
   60  F  6 YY   -0.000121  -0.056628   0.039351  -0.042772  -0.000006
   61  F  6 ZZ   -0.000126  -0.068056   0.024146  -0.053145   0.000039
   62  F  6 XY   -0.000045   0.011204   0.011238  -0.023863   0.000062
   63  F  6 XZ   -0.004896  -0.000010   0.000011  -0.000026   0.014441
   64  F  6 YZ    0.000231  -0.000007   0.000006   0.000016   0.013128
   65  H  7  S   -0.006889  -0.057027  -0.082630  -0.162311  -0.146529
   66  H  7  S    1.644343   0.009806  -0.222064  -0.110609  -0.190257

                     26         27         28         29         30
                    0.7872     0.8619     0.8811     0.9600     0.9880
                     A          A          A          A          A   
    1  C  1  S    0.013875  -0.000023  -0.047860  -0.023487  -0.008425
    2  C  1  S   -0.236252   0.000074   0.158455  -0.353865  -0.122598
    3  C  1  X   -0.999647  -0.000204  -0.083250  -0.095420  -0.047428
    4  C  1  Y    0.192939  -0.000191  -0.259839  -0.144267   0.164902
    5  C  1  Z    0.000176  -0.704187   0.000269   0.000368  -0.000013
    6  C  1  S    0.461002  -0.000467  -1.191754   0.615436   0.451518
    7  C  1  X    1.255505   0.001042   1.035281  -0.112445   0.313563
    8  C  1  Y   -0.403924   0.000617   0.915104   1.294011  -0.578632
    9  C  1  Z   -0.000101   2.209399  -0.000810  -0.000890   0.000088
   10  C  1 XX    0.069907  -0.000031  -0.040205  -0.119942   0.021745
   11  C  1 YY   -0.005254   0.000009  -0.040482   0.070224   0.013909
   12  C  1 ZZ   -0.016786  -0.000033   0.014729  -0.069088  -0.032229
   13  C  1 XY   -0.091721  -0.000053  -0.091940  -0.021828   0.002076
   14  C  1 XZ   -0.000026  -0.008711   0.000004  -0.000049  -0.000021
   15  C  1 YZ    0.000006  -0.116206   0.000071  -0.000011  -0.000023
   16  C  2  S    0.019566  -0.000011  -0.003286  -0.023665   0.054821
   17  C  2  S    0.042397  -0.000181  -0.312350  -1.170422  -0.298969
   18  C  2  X   -0.140286  -0.000337  -0.621217   0.004769   0.860563
   19  C  2  Y   -0.059640  -0.000188  -0.662721   0.009385  -0.555590
   20  C  2  Z   -0.000428   0.282490  -0.000150   0.000094   0.000418
   21  C  2  S    0.333145   0.001533   1.550289   2.188326  -0.819641
   22  C  2  X   -0.330789   0.000087   1.021415   0.874279  -1.017815
   23  C  2  Y    0.113810   0.000826   2.229796  -1.192017   1.148687
   24  C  2  Z    0.000445  -1.024926  -0.000051   0.000392  -0.000517
   25  C  2 XX   -0.009044   0.000062   0.012255   0.013700   0.096968
   26  C  2 YY    0.069958   0.000002   0.002854  -0.231577   0.003246
   27  C  2 ZZ   -0.022335  -0.000043  -0.029604  -0.021653  -0.079960
   28  C  2 XY    0.065558   0.000010   0.041991  -0.015954  -0.083439
   29  C  2 XZ    0.000006   0.032988  -0.000018   0.000010   0.000113
   30  C  2 YZ   -0.000028   0.053868   0.000004   0.000079  -0.000040
   31  O  3  S    0.005643   0.000021   0.019668  -0.024096  -0.047277
   32  O  3  S    0.100823  -0.000185  -0.162871  -0.062792   0.205127
   33  O  3  X    0.023472   0.000055  -0.070282   0.130586   0.155462
   34  O  3  Y    0.147149   0.000050  -0.220702   0.060382  -0.162527
   35  O  3  Z   -0.000052   0.111824  -0.000067  -0.000013   0.000054
   36  O  3  S   -0.418596  -0.000577  -0.206718   0.505823  -0.304460
   37  O  3  X   -0.054695  -0.000509  -0.423080   0.245961   0.528420
   38  O  3  Y    0.078852   0.000146  -0.071289   0.066836  -0.257512
   39  O  3  Z   -0.000118   0.138272  -0.000118   0.000158   0.000269
   40  O  3 XX    0.041672  -0.000141  -0.080452  -0.100774  -0.131036
   41  O  3 YY    0.040734  -0.000019  -0.014200  -0.011492   0.071081
   42  O  3 ZZ    0.024853  -0.000037  -0.038031   0.009625   0.088994
   43  O  3 XY   -0.034916  -0.000019  -0.052838   0.021166   0.091946
   44  O  3 XZ   -0.000019   0.033653  -0.000006  -0.000044  -0.000117
   45  O  3 YZ   -0.000014   0.024850  -0.000019   0.000020   0.000041
   46  H  4  S    0.034173  -0.000168   0.145457  -0.671889   0.198410
   47  H  4  S   -0.097473   0.000371   0.831884  -0.795627   0.702253
   48  H  5  S    0.012047  -0.407168  -0.217590  -0.134306  -0.088918
   49  H  5  S   -0.010994  -0.587342  -0.269883  -0.569132   0.068461
   50  F  6  S    0.004772  -0.000002   0.002132  -0.018499   0.000760
   51  F  6  S    0.153551  -0.000175  -0.282406  -0.205167  -0.029904
   52  F  6  X   -0.272726  -0.000013   0.028513   0.099479  -0.104417
   53  F  6  Y    0.116217  -0.000011  -0.044214   0.121643  -0.061621
   54  F  6  Z    0.000032  -0.209731   0.000066   0.000103  -0.000017
   55  F  6  S   -0.739183   0.000346   0.401693   0.640725  -0.181219
   56  F  6  X    0.072231  -0.000091   0.012021  -0.168423   0.085584
   57  F  6  Y   -0.086194  -0.000057  -0.110862  -0.041709  -0.027172
   58  F  6  Z   -0.000046  -0.191035   0.000040   0.000082  -0.000030
   59  F  6 XX   -0.029391  -0.000044  -0.094541  -0.041733  -0.064633
   60  F  6 YY    0.020130  -0.000078  -0.128415  -0.114662  -0.012204
   61  F  6 ZZ    0.104700  -0.000094  -0.127994  -0.124294  -0.003843
   62  F  6 XY    0.110139   0.000000   0.008290   0.056985   0.002857
   63  F  6 XZ    0.000041   0.006220  -0.000006  -0.000021   0.000020
   64  F  6 YZ   -0.000042  -0.009969   0.000003  -0.000007   0.000003
   65  H  7  S    0.012207   0.406871  -0.217886  -0.134192  -0.088850
   66  H  7  S   -0.010784   0.586885  -0.270288  -0.570274   0.068355

                     31         32         33         34         35
                    1.0787     1.0828     1.0980     1.1650     1.2347
                     A          A          A          A          A   
    1  C  1  S    0.000059  -0.033597  -0.024324   0.009816  -0.081938
    2  C  1  S   -0.000596   0.111929  -0.001249  -1.328224  -1.076981
    3  C  1  X   -0.000440   0.107209  -0.009910   0.072996   0.240593
    4  C  1  Y   -0.000154   0.065291   0.076756  -0.583145   0.078991
    5  C  1  Z   -0.883905  -0.001677  -0.000109   0.000031  -0.000048
    6  C  1  S    0.000838   0.076385   0.021829   3.039008   4.284354
    7  C  1  X    0.000659  -0.207812  -0.017932   0.053644  -1.704291
    8  C  1  Y    0.000505  -0.158377   0.081700   0.616639  -0.561808
    9  C  1  Z    1.416246   0.002935   0.000211   0.000132  -0.000019
   10  C  1 XX   -0.000248   0.107212   0.017088  -0.130075   0.099181
   11  C  1 YY    0.000117  -0.078556  -0.049345  -0.117369   0.001525
   12  C  1 ZZ    0.000041  -0.011854  -0.001303   0.067223  -0.206078
   13  C  1 XY    0.000087  -0.023817  -0.033673  -0.049398  -0.041444
   14  C  1 XZ    0.007662   0.000019  -0.000006   0.000095  -0.000099
   15  C  1 YZ    0.221750   0.000403   0.000006  -0.000054   0.000015
   16  C  2  S    0.000080  -0.049629   0.048590  -0.018258   0.029663
   17  C  2  S    0.000587  -0.465480  -0.904076  -0.126947   0.768166
   18  C  2  X    0.000127  -0.037304  -0.134892   0.007245   0.097171
   19  C  2  Y   -0.000294   0.136830   0.600487   0.013677   0.141455
   20  C  2  Z   -0.028792  -0.000054  -0.000160   0.000019   0.000052
   21  C  2  S   -0.000201   0.163133   2.047181  -0.197742  -3.635216
   22  C  2  X   -0.000143   0.136118   0.209500  -0.225259  -0.824857
   23  C  2  Y    0.000704  -0.627811  -1.022545   0.129945  -2.133416
   24  C  2  Z   -0.030700   0.000020   0.000202  -0.000266   0.000333
   25  C  2 XX    0.000556  -0.311915  -0.034662  -0.104799   0.022192
   26  C  2 YY   -0.000169   0.056311   0.087207   0.028123   0.100596
   27  C  2 ZZ   -0.000074   0.052244  -0.161988   0.026759  -0.036625
   28  C  2 XY   -0.000262   0.154651  -0.118764  -0.019008   0.001011
   29  C  2 XZ   -0.079835  -0.000312   0.000089  -0.000005   0.000064
   30  C  2 YZ   -0.071966  -0.000056  -0.000092   0.000023  -0.000039
   31  O  3  S   -0.000038   0.014322  -0.011518   0.010086  -0.025543
   32  O  3  S   -0.000892   0.453217  -0.096465   0.023546  -0.356681
   33  O  3  X    0.001041  -0.623190   0.254479  -0.199279  -0.013766
   34  O  3  Y   -0.000400   0.186332  -0.176914  -0.025997  -0.076860
   35  O  3  Z    0.070133  -0.000005   0.000198  -0.000368  -0.000409
   36  O  3  S    0.001322  -0.515891   0.063089  -0.176665   1.512223
   37  O  3  X   -0.001457   1.009116  -0.361005   0.225242   0.420694
   38  O  3  Y    0.000524  -0.255459   0.202396  -0.100005   0.331391
   39  O  3  Z   -0.099149   0.000155  -0.000219   0.000455   0.000567
   40  O  3 XX   -0.000628   0.327664  -0.058196   0.075637  -0.060907
   41  O  3 YY   -0.000333   0.181126  -0.100644   0.016392  -0.068267
   42  O  3 ZZ   -0.000310   0.160773  -0.033788   0.020643  -0.241906
   43  O  3 XY    0.000100  -0.050594   0.104693   0.031568   0.024761
   44  O  3 XZ    0.001189   0.000084  -0.000033   0.000022   0.000039
   45  O  3 YZ   -0.014733  -0.000050   0.000058   0.000045  -0.000063
   46  H  4  S   -0.000458   0.151266   0.836902   0.250856  -0.064688
   47  H  4  S    0.000894  -0.613024  -1.863312  -0.061000  -0.540321
   48  H  5  S    0.658768  -0.273792  -0.138242   0.552990  -0.396896
   49  H  5  S   -1.405392   0.251756   0.049043  -1.316918  -0.223093
   50  F  6  S   -0.000018   0.008003   0.001969   0.006100  -0.046280
   51  F  6  S    0.000196  -0.132245  -0.063414  -0.020558  -1.009937
   52  F  6  X    0.000070  -0.026702   0.012293  -0.084073  -0.162497
   53  F  6  Y    0.000167  -0.067053  -0.047024   0.011223   0.194513
   54  F  6  Z    0.051184   0.000033   0.000017  -0.000054   0.000106
   55  F  6  S   -0.000181   0.134855   0.085316  -0.261065   1.754866
   56  F  6  X   -0.000296   0.142049   0.025209   0.155276   0.376614
   57  F  6  Y   -0.000028  -0.000008   0.023979  -0.094273  -0.208728
   58  F  6  Z   -0.107736  -0.000236  -0.000036  -0.000019  -0.000114
   59  F  6 XX    0.000153  -0.071746  -0.017463  -0.001458  -0.552698
   60  F  6 YY    0.000025  -0.027710  -0.034392  -0.051099  -0.472176
   61  F  6 ZZ   -0.000002  -0.034359  -0.012743   0.023580  -0.413683
   62  F  6 XY    0.000049  -0.022772   0.004313   0.040382   0.036194
   63  F  6 XZ    0.079982   0.000142   0.000014  -0.000014   0.000040
   64  F  6 YZ   -0.057471  -0.000089  -0.000002   0.000007  -0.000030
   65  H  7  S   -0.657611  -0.276044  -0.138295   0.553313  -0.396953
   66  H  7  S    1.403664   0.257181   0.049341  -1.317168  -0.223423

                     36         37         38         39         40
                    1.2805     1.3408     1.4684     1.5145     1.5837
                     A          A          A          A          A   
    1  C  1  S    0.000035  -0.009544  -0.103313  -0.000007   0.021643
    2  C  1  S    0.000965   0.029041  -1.091445   0.000129   0.276102
    3  C  1  X   -0.000127   0.098827  -0.030525  -0.000099  -0.110865
    4  C  1  Y    0.000193  -0.098874   0.130615   0.000099   0.017580
    5  C  1  Z   -0.144920  -0.000042   0.000024   0.094618  -0.000049
    6  C  1  S   -0.003346  -0.836136   3.374048  -0.000547  -0.885401
    7  C  1  X    0.000814   0.248215  -0.604533   0.000167   0.500069
    8  C  1  Y    0.000017   0.443173  -0.457901   0.000351   0.155989
    9  C  1  Z    0.575446   0.000078  -0.000032  -0.467097   0.000313
   10  C  1 XX   -0.000012  -0.008580  -0.115066   0.000071   0.054116
   11  C  1 YY    0.000032  -0.000816  -0.137042   0.000184   0.008116
   12  C  1 ZZ    0.000063  -0.003275  -0.012983  -0.000278  -0.034903
   13  C  1 XY    0.000027  -0.072208   0.160564   0.000030   0.070676
   14  C  1 XZ   -0.016970  -0.000135  -0.000046   0.422645  -0.000343
   15  C  1 YZ    0.021315   0.000077  -0.000079   0.076658  -0.000170
   16  C  2  S   -0.000019  -0.008783   0.024580  -0.000028  -0.022513
   17  C  2  S   -0.000381  -0.043309   0.345828  -0.000152  -0.112863
   18  C  2  X   -0.000118  -0.070171  -0.068601   0.000074   0.108175
   19  C  2  Y    0.000037  -0.287709  -0.087083  -0.000098  -0.015967
   20  C  2  Z    0.131611  -0.000014   0.000047   0.044797  -0.000116
   21  C  2  S    0.001970   0.062875  -2.093608  -0.001535  -0.949643
   22  C  2  X    0.000684   0.765072  -0.573988   0.001351   0.864151
   23  C  2  Y    0.000852   1.576599  -0.530789  -0.000088   0.009014
   24  C  2  Z   -0.683817  -0.000126   0.000088   0.130945   0.000446
   25  C  2 XX   -0.000091  -0.104932  -0.007482  -0.000050  -0.087053
   26  C  2 YY   -0.000017   0.106601   0.060962   0.000049   0.145510
   27  C  2 ZZ    0.000070   0.009588  -0.048205   0.000019  -0.037192
   28  C  2 XY    0.000026  -0.121158  -0.003848   0.000038   0.126052
   29  C  2 XZ    0.100861   0.000001   0.000069  -0.227040   0.000026
   30  C  2 YZ    0.015233   0.000032  -0.000025  -0.345655   0.000404
   31  O  3  S    0.000015  -0.005562  -0.003551  -0.000079  -0.054681
   32  O  3  S    0.000192  -0.100671  -0.049873  -0.001243  -0.983447
   33  O  3  X    0.000353   0.275747   0.012986  -0.000168  -0.227958
   34  O  3  Y   -0.000061   0.806211   0.084253   0.000218   0.063131
   35  O  3  Z   -0.956867   0.000039  -0.000008  -0.062402   0.000028
   36  O  3  S   -0.000804   0.281684   0.341467   0.003833   2.800669
   37  O  3  X   -0.000709  -0.444852   0.097586   0.001112   0.987371
   38  O  3  Y   -0.000002  -1.469944  -0.057803  -0.000822  -0.384719
   39  O  3  Z    1.288306   0.000048   0.000039  -0.018505   0.000230
   40  O  3 XX    0.000077   0.025835   0.035183  -0.000346  -0.325858
   41  O  3 YY    0.000045  -0.092967   0.047505  -0.000457  -0.235746
   42  O  3 ZZ    0.000084  -0.021562  -0.123107  -0.000264  -0.216857
   43  O  3 XY   -0.000040   0.083997   0.022751   0.000177   0.040696
   44  O  3 XZ   -0.039754   0.000012   0.000043   0.006447   0.000032
   45  O  3 YZ    0.037157   0.000089  -0.000061  -0.156718   0.000181
   46  H  4  S    0.000058   0.073165  -0.003806   0.000126   0.181341
   47  H  4  S    0.000113   0.744789   0.127206  -0.000099  -0.076644
   48  H  5  S    0.029586  -0.059650  -0.362322   0.001571   0.099816
   49  H  5  S   -0.324517  -0.071298  -0.313698   0.197762   0.119712
   50  F  6  S    0.000012  -0.008614   0.059079   0.000007   0.006526
   51  F  6  S    0.000352  -0.192916   0.754818   0.000111   0.081285
   52  F  6  X    0.000196  -0.043157   0.499370   0.000439   0.462151
   53  F  6  Y    0.000016   0.041514  -0.394678   0.000567   0.534234
   54  F  6  Z   -0.021153   0.000178  -0.000011  -0.655228   0.000789
   55  F  6  S   -0.000431   0.440748  -1.910077  -0.000207  -0.193160
   56  F  6  X   -0.000323   0.056519  -0.490338  -0.000542  -0.583480
   57  F  6  Y    0.000060  -0.074175   0.439463  -0.000596  -0.646973
   58  F  6  Z   -0.031908  -0.000157   0.000022   0.738618  -0.000949
   59  F  6 XX    0.000217  -0.061992   0.275666   0.000056  -0.026197
   60  F  6 YY    0.000170  -0.086170   0.398702   0.000051   0.118702
   61  F  6 ZZ    0.000114  -0.109410   0.484314   0.000081   0.031946
   62  F  6 XY   -0.000022  -0.012957   0.050923   0.000111   0.003032
   63  F  6 XZ    0.020229   0.000023   0.000072  -0.060118  -0.000036
   64  F  6 YZ    0.006567  -0.000038  -0.000059   0.112951  -0.000097
   65  H  7  S   -0.029606  -0.059837  -0.362345  -0.001726   0.099914
   66  H  7  S    0.325874  -0.070887  -0.313855  -0.197601   0.119925

                     41         42         43         44         45
                    1.7054     1.7784     1.7917     1.8730     2.0280
                     A          A          A          A          A   
    1  C  1  S   -0.000003   0.010871  -0.000028   0.023773   0.000156
    2  C  1  S   -0.000145   0.281973  -0.000365   0.066117   0.000974
    3  C  1  X    0.000038  -0.018036  -0.000055   0.086031   0.000403
    4  C  1  Y   -0.000078   0.155469   0.000062  -0.059920   0.000568
    5  C  1  Z    0.180691   0.000167   0.011523   0.000092   0.004552
    6  C  1  S    0.000425  -0.734011   0.001004  -0.630122  -0.005830
    7  C  1  X    0.000021  -0.454066   0.000913  -0.462153   0.003724
    8  C  1  Y    0.000144  -0.297532  -0.000336   0.306608  -0.001073
    9  C  1  Z   -0.815641  -0.000476   0.167827  -0.000485  -0.585499
   10  C  1 XX   -0.000068  -0.195214  -0.000308   0.391978  -0.000273
   11  C  1 YY   -0.000170   0.321642   0.000449  -0.517632   0.001457
   12  C  1 ZZ    0.000232  -0.116149  -0.000160   0.106021  -0.001268
   13  C  1 XY    0.000115  -0.031800  -0.000030   0.126388   0.000335
   14  C  1 XZ   -0.433366  -0.000252   0.071848   0.000202   0.342367
   15  C  1 YZ    0.102758   0.000119   0.113605   0.000082   0.089594
   16  C  2  S    0.000015  -0.029368   0.000053  -0.013881  -0.000127
   17  C  2  S    0.000017   0.041750   0.000508  -0.430215  -0.001001
   18  C  2  X    0.000003   0.045826  -0.000020  -0.014688  -0.000656
   19  C  2  Y    0.000016   0.101041  -0.000126   0.002969  -0.000626
   20  C  2  Z   -0.034293  -0.000202  -0.207635  -0.000237   0.056923
   21  C  2  S    0.000596  -2.153651   0.003782  -0.585912   0.010566
   22  C  2  X   -0.000489   1.180736  -0.003993   1.736950  -0.002952
   23  C  2  Y    0.000174  -0.753754   0.002475  -1.039843   0.006109
   24  C  2  Z    0.206252   0.000822   0.114693   0.000850   0.319263
   25  C  2 XX    0.000018  -0.064372   0.000562  -0.083828   0.000500
   26  C  2 YY    0.000077   0.028750  -0.000057   0.160379   0.001355
   27  C  2 ZZ   -0.000083   0.035159  -0.000492  -0.103241  -0.002172
   28  C  2 XY    0.000005   0.078792  -0.000679   0.254205   0.000178
   29  C  2 XZ    0.114009  -0.000533  -0.490260  -0.000678   0.294566
   30  C  2 YZ    0.245020   0.000658   0.483682   0.000592   0.175435
   31  O  3  S    0.000023  -0.061076   0.000168  -0.057167   0.000190
   32  O  3  S    0.000341  -1.167251   0.002574  -0.692770   0.002697
   33  O  3  X    0.000035  -0.254598   0.000221   0.123550  -0.000230
   34  O  3  Y   -0.000018   0.077317  -0.000175   0.052605   0.000022
   35  O  3  Z    0.044961  -0.000320  -0.182580  -0.000301   0.107835
   36  O  3  S   -0.001130   3.634973  -0.009031   2.882549  -0.011165
   37  O  3  X   -0.000302   1.182551  -0.002527   0.664545  -0.003170
   38  O  3  Y    0.000151  -0.379063   0.000835  -0.272785   0.000472
   39  O  3  Z   -0.085578   0.000463  -0.075048   0.000431  -0.148973
   40  O  3 XX    0.000062  -0.341848   0.000558  -0.309212   0.001382
   41  O  3 YY    0.000156  -0.243299   0.000323   0.144462   0.002926
   42  O  3 ZZ    0.000059  -0.243925   0.001035  -0.359698  -0.002588
   43  O  3 XY   -0.000068   0.052822   0.000026   0.002438   0.000976
   44  O  3 XZ    0.022385   0.000452   0.510931   0.000763   0.081201
   45  O  3 YZ    0.089379   0.000061   0.019738  -0.000185   0.757280
   46  H  4  S    0.000104   0.047427   0.000312  -0.261193  -0.000676
   47  H  4  S   -0.000100  -0.095365   0.000786  -0.514164   0.001495
   48  H  5  S    0.040943   0.031173  -0.079461   0.154787   0.125859
   49  H  5  S    0.330178   0.328159  -0.102518   0.027310   0.158751
   50  F  6  S    0.000006  -0.014943  -0.000012  -0.007296   0.000043
   51  F  6  S    0.000045  -0.193523  -0.000145   0.010835   0.000755
   52  F  6  X    0.000078  -0.148975   0.000483  -0.252684   0.000150
   53  F  6  Y    0.000396  -0.429208   0.000584  -0.240043   0.000571
   54  F  6  Z   -0.596648  -0.000114   0.028684  -0.000076  -0.117816
   55  F  6  S   -0.000201   0.545852   0.000017   0.243908  -0.002019
   56  F  6  X   -0.000065   0.208951  -0.000717   0.287711  -0.000190
   57  F  6  Y   -0.000599   0.737994  -0.000876   0.343787  -0.000879
   58  F  6  Z    0.929138   0.000261  -0.067172   0.000155   0.200403
   59  F  6 XX   -0.000009   0.233622  -0.000158  -0.179621   0.001555
   60  F  6 YY    0.000191  -0.345629  -0.000196   0.344015   0.000268
   61  F  6 ZZ   -0.000114  -0.124592   0.000131  -0.186001  -0.001009
   62  F  6 XY   -0.000185   0.233496  -0.000025  -0.073021   0.001079
   63  F  6 XZ    0.323591   0.000038  -0.019315  -0.000051   0.021914
   64  F  6 YZ   -0.258267  -0.000308   0.064597   0.000178   0.339699
   65  H  7  S   -0.040889   0.031282   0.079157   0.154851  -0.124173
   66  H  7  S   -0.330445   0.327658   0.102061   0.026920  -0.157681

                     46         47         48         49         50
                    2.0343     2.0760     2.1035     2.1326     2.2344
                     A          A          A          A          A   
    1  C  1  S   -0.033033   0.023544  -0.000032   0.025708  -0.072437
    2  C  1  S   -0.110362  -0.119537  -0.000287   0.810647  -0.839224
    3  C  1  X   -0.112994   0.149147  -0.000015  -0.219893  -0.068323
    4  C  1  Y   -0.120868   0.066162  -0.000003  -0.102919  -0.006504
    5  C  1  Z    0.000096  -0.000006   0.033957   0.000046   0.000048
    6  C  1  S    1.053332  -0.621566   0.001668  -2.145031   3.575919
    7  C  1  X   -0.826184  -0.512564   0.001044  -0.465407  -0.128585
    8  C  1  Y    0.278101  -0.063152  -0.000150   0.428089  -1.031450
    9  C  1  Z   -0.002995   0.000555   0.566393   0.000781  -0.000235
   10  C  1 XX    0.075716  -0.001221  -0.000096   0.027785   0.237388
   11  C  1 YY   -0.331385   0.195304  -0.000138  -0.188571  -0.023468
   12  C  1 ZZ    0.264067  -0.156518   0.000222   0.101831  -0.207117
   13  C  1 XY   -0.121969   0.353907  -0.000290  -0.039210  -0.243011
   14  C  1 XZ    0.001750   0.000102  -0.087174  -0.000178  -0.000131
   15  C  1 YZ    0.000494   0.000331   0.268789   0.000071   0.000100
   16  C  2  S    0.024421   0.015198  -0.000011  -0.011934   0.019657
   17  C  2  S    0.230985  -0.048513   0.000065   0.077758   0.394094
   18  C  2  X    0.169685  -0.116257   0.000102   0.087139   0.050059
   19  C  2  Y    0.136903   0.052055   0.000029  -0.088199  -0.056447
   20  C  2  Z    0.000256   0.000032  -0.021064  -0.000018   0.000021
   21  C  2  S   -2.290787   0.262864  -0.000998   0.708976  -2.185092
   22  C  2  X    0.740421  -0.357072   0.000622  -0.000989  -0.895915
   23  C  2  Y   -1.466670   0.726658  -0.000361  -0.587306  -0.926221
   24  C  2  Z    0.002174  -0.000256  -0.104733  -0.000111   0.000306
   25  C  2 XX   -0.177806   0.249961  -0.000179  -0.164694  -0.150695
   26  C  2 YY   -0.208916  -0.294093   0.000167   0.207149   0.131442
   27  C  2 ZZ    0.462622  -0.011871   0.000075  -0.032970  -0.035946
   28  C  2 XY   -0.051236   0.178129   0.000033  -0.249684  -0.162044
   29  C  2 XZ    0.001039   0.000201  -0.042102  -0.000082   0.000036
   30  C  2 YZ    0.001078   0.000001  -0.049881  -0.000187  -0.000111
   31  O  3  S   -0.045236   0.016161  -0.000020   0.000361  -0.010258
   32  O  3  S   -0.620259   0.257955  -0.000560   0.108682  -0.129561
   33  O  3  X    0.046283   0.030917  -0.000042  -0.040235  -0.054575
   34  O  3  Y   -0.024585   0.205792  -0.000108  -0.179431  -0.109822
   35  O  3  Z    0.000462   0.000086   0.008626   0.000031   0.000019
   36  O  3  S    2.614234  -1.008228   0.001778  -0.221579   0.512352
   37  O  3  X    0.749341  -0.368805   0.000601   0.000553   0.338443
   38  O  3  Y   -0.086282  -0.223968  -0.000011   0.315148   0.250356
   39  O  3  Z   -0.000354  -0.000209   0.002964  -0.000045  -0.000018
   40  O  3 XX   -0.294722  -0.120027  -0.000052   0.252811  -0.005359
   41  O  3 YY   -0.515972  -0.118300   0.000231  -0.241119  -0.377115
   42  O  3 ZZ    0.408879   0.382680  -0.000414   0.016192   0.295926
   43  O  3 XY   -0.209115  -0.364386   0.000314   0.277801  -0.081880
   44  O  3 XZ    0.000350  -0.000338  -0.091994  -0.000124   0.000043
   45  O  3 YZ    0.003876   0.000236  -0.219176  -0.000178   0.000455
   46  H  4  S    0.042943   0.508271  -0.000220  -0.449346  -0.116832
   47  H  4  S   -0.371022   0.126800   0.000115  -0.254164  -0.058765
   48  H  5  S   -0.183666   0.141382  -0.267779   0.165966  -0.153133
   49  H  5  S   -0.065545   0.025451  -0.184462   0.299328  -0.172671
   50  F  6  S   -0.011135  -0.049870   0.000091  -0.069064   0.074717
   51  F  6  S   -0.228942  -0.670448   0.001406  -1.198831   0.933237
   52  F  6  X   -0.001713   0.041477  -0.000164   0.255672  -0.020729
   53  F  6  Y   -0.139100  -0.052600   0.000171  -0.204564   0.014847
   54  F  6  Z   -0.000602   0.000046   0.122625   0.000047   0.000026
   55  F  6  S    0.579194   1.670627  -0.003426   2.896723  -2.641571
   56  F  6  X    0.000999  -0.316990   0.000661  -0.677195   0.544779
   57  F  6  Y    0.217711   0.261172  -0.000533   0.475699  -0.290908
   58  F  6  Z    0.001055  -0.000017  -0.211886  -0.000018  -0.000176
   59  F  6 XX   -0.334453  -0.370291   0.001024  -0.592007   0.691947
   60  F  6 YY   -0.160158   0.094737  -0.000227  -0.124866   0.689592
   61  F  6 ZZ    0.256356  -0.473562   0.000721  -0.539936  -0.373373
   62  F  6 XY   -0.207917   0.324980  -0.000473   0.360896   0.019259
   63  F  6 XZ    0.000229   0.000668   0.642543   0.000511  -0.000141
   64  F  6 YZ    0.001604   0.000913   0.638859   0.000245   0.000201
   65  H  7  S   -0.184788   0.141818   0.267315   0.166368  -0.153085
   66  H  7  S   -0.067383   0.025837   0.184070   0.299763  -0.172838

                     51         52         53         54         55
                    2.3353     2.3847     2.4680     2.5264     2.5837
                     A          A          A          A          A   
    1  C  1  S   -0.000016   0.025844  -0.032462   0.027094  -0.000120
    2  C  1  S    0.000053  -0.019331  -0.160819   0.028278  -0.000533
    3  C  1  X   -0.000014   0.071756   0.010021   0.303736  -0.000500
    4  C  1  Y   -0.000036   0.004577  -0.058312   0.094943  -0.000312
    5  C  1  Z    0.140451   0.000105  -0.000240   0.000171   0.121065
    6  C  1  S    0.000655  -0.738114   1.527072  -0.644194   0.004379
    7  C  1  X   -0.000173   0.108348  -0.739839   0.274160  -0.001542
    8  C  1  Y   -0.000117  -0.053304  -0.203250   0.696954  -0.002049
    9  C  1  Z    0.998205   0.000620  -0.001311   0.000840   0.314330
   10  C  1 XX   -0.000582   0.421488  -0.311936   0.048955  -0.000127
   11  C  1 YY    0.000025   0.118181   0.070170  -0.442937   0.000910
   12  C  1 ZZ    0.000630  -0.587064   0.312134   0.477215  -0.000874
   13  C  1 XY    0.000597   0.048764   0.685791   0.070142   0.000942
   14  C  1 XZ   -0.082100  -0.000281  -0.000103   0.000782   0.456645
   15  C  1 YZ    0.311170   0.000159  -0.001250   0.001166   0.783168
   16  C  2  S    0.000027  -0.030644   0.014710  -0.004478   0.000115
   17  C  2  S    0.000117  -0.365646   0.012477  -0.037373   0.000201
   18  C  2  X   -0.000131  -0.196839  -0.284188   0.262563  -0.000801
   19  C  2  Y   -0.000031  -0.178222  -0.189688  -0.026386  -0.000272
   20  C  2  Z    0.042255   0.000027  -0.000182   0.000228   0.174351
   21  C  2  S   -0.000748   1.085255  -1.295152   1.062791  -0.004599
   22  C  2  X   -0.000344   0.325992  -0.035223   0.305811  -0.001020
   23  C  2  Y   -0.000268   0.099635  -1.106874   0.325968  -0.002447
   24  C  2  Z   -0.411574  -0.000316   0.000613  -0.000170   0.069613
   25  C  2 XX    0.000095   0.105422   0.065200  -0.302011   0.000071
   26  C  2 YY   -0.000542   0.405089   0.019781   0.449523  -0.000286
   27  C  2 ZZ    0.000490  -0.590394  -0.114401  -0.170816   0.000435
   28  C  2 XY    0.000010   0.062938  -0.046103   0.386563  -0.000538
   29  C  2 XZ   -0.330759  -0.000017   0.000365  -0.000102   0.011049
   30  C  2 YZ   -0.633251  -0.000759   0.000120   0.000392   0.444161
   31  O  3  S    0.000010  -0.000255  -0.003337   0.001380  -0.000002
   32  O  3  S   -0.000079   0.027521  -0.315473   0.452752  -0.000784
   33  O  3  X   -0.000056  -0.058120  -0.153171   0.350429  -0.000358
   34  O  3  Y   -0.000087   0.002398  -0.047505  -0.094635  -0.000111
   35  O  3  Z   -0.050115  -0.000079  -0.000082   0.000196   0.038603
   36  O  3  S   -0.000000  -0.212702   0.907736  -0.625595   0.002021
   37  O  3  X    0.000103  -0.085023   0.421766  -0.359943   0.001075
   38  O  3  Y    0.000198   0.045077   0.247759  -0.020226   0.000609
   39  O  3  Z    0.134064   0.000098   0.000192  -0.000238  -0.178192
   40  O  3 XX    0.000050   0.061345   0.215336  -0.006814   0.000594
   41  O  3 YY    0.000348  -0.405301  -0.464549  -0.024590  -0.000479
   42  O  3 ZZ   -0.000344   0.315965   0.156057   0.249595  -0.000284
   43  O  3 XY    0.000250  -0.034636   0.361876  -0.204553   0.000845
   44  O  3 XZ    0.195166   0.000029   0.000331  -0.000491  -0.461182
   45  O  3 YZ    0.482518   0.000523   0.000231  -0.000266  -0.114106
   46  H  4  S    0.000241  -0.423751  -0.190125  -0.256998   0.000133
   47  H  4  S   -0.000021  -0.033301  -0.287174   0.098297  -0.000571
   48  H  5  S   -0.450120   0.363696  -0.286736  -0.141822  -0.493259
   49  H  5  S   -0.226619  -0.036461  -0.010720  -0.094321   0.069445
   50  F  6  S   -0.000026   0.003335  -0.020421  -0.003949   0.000003
   51  F  6  S    0.000328  -0.118409   0.499509  -0.016380   0.000751
   52  F  6  X   -0.000345   0.076194  -0.422163   0.021214  -0.000432
   53  F  6  Y    0.000206  -0.160625   0.171452   0.179855  -0.000126
   54  F  6  Z    0.207408   0.000118  -0.000152   0.000195   0.091489
   55  F  6  S   -0.000212   0.172347  -0.591479   0.187725  -0.001594
   56  F  6  X    0.000173  -0.014938   0.434221  -0.185205   0.000867
   57  F  6  Y   -0.000058   0.186207  -0.050150  -0.320266   0.000479
   58  F  6  Z   -0.412022  -0.000284   0.000474  -0.000383  -0.196370
   59  F  6 XX   -0.000040  -0.118377  -0.028173   0.507823  -0.000743
   60  F  6 YY    0.000473  -0.304736   0.193024  -0.521523   0.001170
   61  F  6 ZZ   -0.000263   0.318159   0.103234   0.027067   0.000030
   62  F  6 XY   -0.000081  -0.227448  -0.043344   0.411536  -0.000801
   63  F  6 XZ    0.252007   0.000413  -0.000075  -0.000107  -0.014185
   64  F  6 YZ   -0.363587  -0.000294   0.000715  -0.000824  -0.351173
   65  H  7  S    0.449398   0.364191  -0.288530  -0.140072   0.493201
   66  H  7  S    0.226783  -0.036134  -0.011241  -0.094291  -0.069240

                     56         57         58         59         60
                    2.6753     2.7433     2.9559     3.0310     3.1742
                     A          A          A          A          A   
    1  C  1  S   -0.040108  -0.000053  -0.000009   0.047828   0.055539
    2  C  1  S   -0.338073  -0.000322   0.000108  -0.056263  -0.312923
    3  C  1  X   -0.052645  -0.000062  -0.000004   0.265555  -0.257832
    4  C  1  Y   -0.069291  -0.000119  -0.000079   0.075884   0.438796
    5  C  1  Z   -0.000117   0.027935   0.003220  -0.000054   0.000088
    6  C  1  S    1.694335   0.001949   0.000070  -0.978024  -0.979040
    7  C  1  X   -0.517773  -0.000483  -0.000018   0.362538   0.032499
    8  C  1  Y   -0.724235  -0.000859  -0.000236   0.123372   0.427363
    9  C  1  Z   -0.000546   0.275343   0.117147  -0.000069   0.000055
   10  C  1 XX    0.303069   0.000599  -0.000060  -0.702777  -0.060113
   11  C  1 YY    0.211745   0.000353   0.000151   0.544539  -0.292965
   12  C  1 ZZ   -0.538981  -0.000975  -0.000145   0.306943   0.374324
   13  C  1 XY    0.269368   0.000129   0.000057  -0.580910  -0.094428
   14  C  1 XZ   -0.001274   0.689448  -0.011496   0.000190   0.000255
   15  C  1 YZ    0.000012  -0.544194   0.461310  -0.000066   0.000050
   16  C  2  S    0.122236   0.000145   0.000001  -0.009352  -0.059537
   17  C  2  S    0.063672   0.000038   0.000024   0.162883  -0.155654
   18  C  2  X   -0.130848  -0.000092  -0.000019   0.020187   0.309927
   19  C  2  Y   -0.210446  -0.000254  -0.000076   0.183505  -0.126067
   20  C  2  Z    0.000032  -0.083161  -0.252929  -0.000065   0.000123
   21  C  2  S   -1.648753  -0.001888  -0.000126   1.169689   0.484869
   22  C  2  X   -0.475831  -0.000706  -0.000065   0.363231   0.369096
   23  C  2  Y   -0.626288  -0.000498  -0.000195   0.472128  -0.239889
   24  C  2  Z    0.000253  -0.075397  -0.292216  -0.000118   0.000134
   25  C  2 XX   -0.539340  -0.000712  -0.000370  -0.100235   0.534251
   26  C  2 YY   -0.004292  -0.000137  -0.000242   0.439053  -0.685660
   27  C  2 ZZ    0.892497   0.001285   0.000622  -0.272642  -0.119023
   28  C  2 XY    0.389143   0.000413   0.000320   0.679075   0.762697
   29  C  2 XZ   -0.000852   0.254954   0.921357  -0.000148  -0.000064
   30  C  2 YZ    0.000162   0.051678  -0.278539  -0.000037   0.000397
   31  O  3  S    0.005058  -0.000010   0.000010   0.032329  -0.011763
   32  O  3  S    0.427063   0.000564  -0.000136   0.402834  -0.204819
   33  O  3  X    0.457957   0.000512  -0.000134   0.253261   0.029745
   34  O  3  Y   -0.216117  -0.000186   0.000029  -0.064394   0.070363
   35  O  3  Z    0.000225  -0.007286   0.036935   0.000090  -0.000007
   36  O  3  S   -0.151739  -0.000320   0.000002  -0.914810   0.662966
   37  O  3  X   -0.133667  -0.000254  -0.000080  -0.500975   0.464265
   38  O  3  Y    0.344354   0.000328   0.000238   0.106402   0.164810
   39  O  3  Z   -0.000204   0.127802   0.449527  -0.000150   0.000085
   40  O  3 XX    0.167257   0.000010  -0.000496  -0.057864   0.676887
   41  O  3 YY    0.040525  -0.000012  -0.000238   0.055930  -0.534217
   42  O  3 ZZ    0.102913   0.000203   0.000748   0.359894  -0.171787
   43  O  3 XY    0.409165   0.000479   0.000530   0.152208   0.403428
   44  O  3 XZ   -0.000058   0.232926   0.888054  -0.000188   0.000177
   45  O  3 YZ    0.000402  -0.153772  -0.382130   0.000145   0.000292
   46  H  4  S    0.145377   0.000305   0.000062  -0.163352   0.312218
   47  H  4  S   -0.069169   0.000006  -0.000078   0.120361  -0.369211
   48  H  5  S    0.109264   0.190892  -0.225103  -0.097454   0.003273
   49  H  5  S   -0.036133  -0.195106   0.066947   0.095225   0.039242
   50  F  6  S    0.029589   0.000040   0.000030   0.009856  -0.013233
   51  F  6  S    0.129957   0.000160   0.000046   0.064433  -0.588908
   52  F  6  X    0.027185   0.000069   0.000019  -0.030307   0.155302
   53  F  6  Y   -0.018367  -0.000002  -0.000028  -0.074806  -0.069762
   54  F  6  Z   -0.000248   0.147168  -0.003016  -0.000012  -0.000031
   55  F  6  S   -0.617806  -0.000776  -0.000347  -0.173086   1.266885
   56  F  6  X    0.136780   0.000055   0.000100   0.183113  -0.634233
   57  F  6  Y    0.000885  -0.000019   0.000041   0.177886   0.286455
   58  F  6  Z    0.000554  -0.394204   0.029352  -0.000017   0.000144
   59  F  6 XX    0.133905   0.000468  -0.000144  -0.444349   0.315881
   60  F  6 YY    0.056923   0.000175   0.000213   0.485083  -0.192534
   61  F  6 ZZ    0.093573  -0.000250   0.000211   0.044744  -0.341488
   62  F  6 XY   -0.002670  -0.000121   0.000020  -0.139879  -0.337423
[...]
  6   F            X-0.016479-0.013060-0.000005 0.004102-0.001622-0.000005
                   Y-0.001334 0.000196-0.000003 0.002003 0.005785-0.000000
                   Z 0.000003 0.000001 0.001856-0.000001 0.000000-0.001280
  7   H            X 0.000171 0.002241-0.003190-0.002290-0.002407-0.002643
                   Y-0.000615 0.002251-0.003096-0.001571-0.001947-0.002837
                   Z 0.000797-0.000445 0.000400 0.000322-0.000297-0.001273

                                   5                          6
                               H                          F         
                          X        Y        Z        X        Y        Z
  5   H            X 0.068813-0.004696 0.002151-0.012891 0.033613 0.031729
                   Y-0.004696 0.166281 0.151540 0.013132-0.017029-0.017010
                   Z 0.002151 0.151540 0.275839 0.003842 0.000917 0.009855
  6   F            X-0.012891 0.013132 0.003842 0.337038-0.178236-0.000085
                   Y 0.033613-0.017029 0.000917-0.178236 0.178648 0.000054
                   Z 0.031729-0.017010 0.009855-0.000085 0.000054 0.054987
  7   H            X 0.003859 0.000241-0.002309-0.012910 0.033617-0.031710
                   Y 0.000232 0.016472-0.018062 0.013137-0.017031 0.016996
                   Z 0.002296 0.018067-0.022965-0.003827-0.000942 0.009879

                                   7
                               H         
                          X        Y        Z
  7   H            X 0.068809-0.004774-0.002040
                   Y-0.004774 0.166358-0.151589
                   Z-0.002040-0.151589 0.275829

          ------------------------          ----------------
          DIPOLE DERIVATIVE TENSOR          (DEBYE/ANGSTROM)
          ------------------------          ----------------

        ATOM                 MU-X           MU-Y           MU-Z
     C          D/DX     3.814798931   -1.643851316   -0.000688092
                D/DY    -2.298710799    1.874866900    0.000544525
                D/DZ    -0.000611637    0.000949221    2.433676087
     C          D/DX     5.959088003   -0.113601936    0.001093671
                D/DY    -0.251281408    4.339018278   -0.000914564
                D/DZ     0.001063788   -0.001226125    1.133370068
     O          D/DX    -5.500487358    0.453786092   -0.000812106
                D/DY     0.911809319   -2.967474608    0.000491845
                D/DZ    -0.001242890    0.000627858   -1.932330531
     H          D/DX    -0.068885696    0.073513193   -0.000042548
                D/DY     0.002395986   -0.979012928    0.000507834
                D/DZ    -0.000085740    0.000198138    0.377266788
     H          D/DX    -0.132639878    0.004406332   -0.042194079
                D/DY     0.065174349    0.016654563   -0.226552198
                D/DZ     0.009553026   -0.401256174   -0.280749572
     F          D/DX    -3.939402063    1.221205730    0.000717444
                D/DY     1.505430378   -2.300474678   -0.000508068
                D/DZ     0.000867792   -0.000408371   -1.450660737
     H          D/DX    -0.132559824    0.004629864    0.041926325
                D/DY     0.065149547    0.016469372    0.226430687
                D/DZ    -0.009592138    0.401138846   -0.280516305

          --------------------------------------------------------
          NORMAL COORDINATE ANALYSIS IN THE HARMONIC APPROXIMATION
          --------------------------------------------------------

          ATOMIC WEIGHTS (AMU)

    1     C                12.00000
    2     C                12.00000
    3     O                15.99491
    4     H                 1.00782
    5     H                 1.00782
    6     F                18.99840
    7     H                 1.00782

 MODES 1 TO 6 ARE TAKEN AS ROTATIONS AND TRANSLATIONS.

 ANALYZING SYMMETRY OF NORMAL MODES...

     FREQUENCIES IN CM**-1, IR INTENSITIES IN DEBYE**2/AMU-ANGSTROM**2,
     REDUCED MASSES IN AMU.

                          1           2           3           4           5
       FREQUENCY:         2.53        1.34        0.47        0.00        0.04  
        SYMMETRY:         A           A           A           A           A   
    REDUCED MASS:     12.51860    10.08588     9.00737     8.85948     8.81392
    IR INTENSITY:      0.00876     0.01200     0.00042     0.00000     0.00001

  1   C            X  0.01914873  0.04069686 -0.00828313  0.02612346  0.12542761
                   Y -0.01780996 -0.04012678  0.00016849  0.12421950 -0.02746979
                   Z  0.02690306 -0.02452396  0.10518619  0.00272746  0.00503978
  2   C            X -0.01339742 -0.03377282 -0.00512205  0.02608901  0.12311637
                   Y  0.02532525  0.05859113 -0.00401781  0.12426518 -0.02440591
                   Z -0.02920624  0.02797934  0.14257198  0.00301447  0.00702107
  3   O            X  0.00175341  0.00078713 -0.00659322  0.02610462  0.12418865
                   Y  0.06492279  0.14926774 -0.00787670  0.12430675 -0.02159223
                   Z -0.14285662  0.06747515  0.14163559  0.00321539  0.00841794
  4   H            X -0.05168983 -0.12132636 -0.00140417  0.02604871  0.12039922
                   Y  0.01744482  0.04052516 -0.00324271  0.12425670 -0.02496633
                   Z  0.04210348  0.02692877  0.17038978  0.00302347  0.00707338
  5   H            X -0.03215590  0.12556259 -0.00177143  0.02632369  0.12823886
                   Y  0.02587825 -0.03287433  0.02485855  0.12426440 -0.02713809
                   Z -0.00475187 -0.02861461  0.08773875  0.00269797  0.00483938
  6   F            X -0.00784538 -0.02117185 -0.00566089  0.02609416  0.12350696
                   Y -0.05842392 -0.13305232  0.00410329  0.12417579 -0.03035456
                   Z  0.15886242 -0.06236073  0.11519312  0.00253874  0.00372942
  7   H            X  0.11523909  0.05835563 -0.01914645  0.02597112  0.12579943
                   Y -0.06068907 -0.04553727 -0.02459806  0.12417526 -0.02774461
                   Z -0.00479993 -0.02859835  0.08773744  0.00269812  0.00483963

 TRANS. SAYVETZ    X -0.02034938 -0.24347115 -0.39636464  1.61879457  7.69271611
                   Y  0.00115502  0.04313235 -0.09722861  7.70484552 -1.62503606
                   Z  0.73832137 -0.09455167  7.77560379  0.17705034  0.36711078
               TOTAL  0.73860265  0.26472367  7.78630674  7.87505474  7.87104781

   ROT. SAYVETZ    X -1.15813072 -0.16798844 -0.66057202 -0.00118649 -0.00806408
                   Y-18.13209450  8.27853377  2.13466201  0.04337176  0.30038523
                   Z -8.38303841-19.18707248  0.81413088 -0.00890398 -0.59551271
               TOTAL 20.00973390 20.89751401  2.37822336  0.04429219  0.66703201

                          6           7           8           9          10
       FREQUENCY:         4.48       94.70      353.05      576.42      807.78  
        SYMMETRY:         A           A           A           A           A   
    REDUCED MASS:      1.81403     2.94610     4.94369     8.94782     1.24636
    IR INTENSITY:      0.01038     0.72913     0.90206     0.13868     0.01536

  1   C            X  0.00376745  0.00002953  0.04499338 -0.08025451 -0.00006522
                   Y -0.00422352  0.00001968  0.12908286 -0.00191414 -0.00005265
                   Z  0.17246534  0.08833916  0.00001587  0.00000009 -0.09392118
  2   C            X -0.00359774 -0.00001165  0.06587226  0.09110149  0.00008626
                   Y  0.00551178  0.00007890  0.10356001 -0.07195418  0.00002253
                   Z -0.09538574  0.14265685 -0.00008716  0.00001542 -0.07479197
  3   O            X -0.00018247  0.00007121 -0.00688137  0.15297879  0.00004749
                   Y  0.01458878 -0.00001520 -0.10115683  0.05322485  0.00000769
                   Z  0.00730997 -0.12144702  0.00003795  0.00000435  0.03863989
  4   H            X -0.01224623 -0.00010244  0.24067614  0.05726512  0.00000850
                   Y  0.00364297  0.00015364  0.13874229 -0.07741807  0.00018949
                   Z -0.38892882  0.46503734 -0.00032100 -0.00024255  0.55637865
  5   H            X -0.00240257  0.09135970  0.13343354 -0.14299895 -0.21493501
                   Y -0.24894323 -0.07928068  0.12305371 -0.00595668 -0.39428534
                   Z  0.34612779  0.14821693  0.00566416  0.00251256  0.19126100
  6   F            X -0.00235479 -0.00007173 -0.09116224 -0.12350305 -0.00004405
                   Y -0.01333000 -0.00005760 -0.08220239  0.00660662  0.00000960
                   Z -0.02279010 -0.08414468  0.00002691  0.00001248  0.02422641
  7   H            X  0.02009149 -0.09118252  0.13350791 -0.14315842  0.21475518
                   Y  0.24066116  0.07929938  0.12316842 -0.00634742  0.39415194
                   Z  0.34617916  0.14827263 -0.00560675 -0.00275876  0.19122532

 TRANS. SAYVETZ    X -0.04013412  0.00006616 -0.00002625  0.00000211  0.00000269
                   Y -0.00911881  0.00001916 -0.00001715 -0.00000218  0.00000044
                   Z  0.91465416 -0.00171045 -0.00000282  0.00000033 -0.00004168
               TOTAL  0.91557967  0.00171184  0.00003148  0.00000305  0.00004177

   ROT. SAYVETZ    X  6.53656429 -0.00589854 -0.00066959  0.00020813 -0.00060354
                   Y -2.78371260  0.02537859  0.00005774 -0.00002366 -0.00027437
                   Z -1.89685506 -0.00556394 -0.00103011  0.00041762 -0.00000379
               TOTAL  7.35348813  0.02664251  0.00122997  0.00046721  0.00066299

                         11          12          13          14          15
       FREQUENCY:      1141.43     1207.99     1238.10     1369.26     1487.77  
        SYMMETRY:         A           A           A           A           A   
    REDUCED MASS:      3.65572     5.32825     1.80322     1.09407     1.20507
    IR INTENSITY:      0.35422     2.65168     0.04823     0.03449     0.35715

  1   C            X -0.08232414  0.16230073  0.00000749 -0.00001247 -0.07811361
                   Y -0.14983055 -0.11936391 -0.00001565  0.00000857 -0.02842681
                   Z  0.00003985 -0.00001167 -0.12435713  0.02665701  0.00002394
  2   C            X  0.07106246  0.00151485 -0.00005569 -0.00003796 -0.03822349
                   Y  0.17429118  0.01315888  0.00000581 -0.00002314 -0.05959903
                   Z  0.00002757 -0.00002939  0.14885883  0.06410696 -0.00002293
  3   O            X -0.00220151 -0.01206847  0.00002475  0.00001885 -0.01161459
                   Y -0.02366493 -0.01192379 -0.00000361  0.00000289  0.04099124
                   Z -0.00001232  0.00000520 -0.03171645 -0.01073891 -0.00001103
  4   H            X  0.23975908 -0.11514489  0.00013162  0.00009896  0.67808485
                   Y  0.21454796 -0.01925573 -0.00015547 -0.00006631  0.07360486
                   Z -0.00030667  0.00006176 -0.51045304 -0.15160451  0.00026215
  5   H            X -0.16538736  0.21877731  0.05150202 -0.65726877  0.41840459
                   Y -0.15771112 -0.09220842 -0.33457084  0.09494919  0.00079632
                   Z -0.00080336 -0.01233549  0.11296724 -0.03404776 -0.01847198
  6   F            X  0.01379357 -0.11041456 -0.00001187 -0.00000494  0.00291309
                   Y  0.00983807  0.08793583  0.00001928  0.00000723  0.01710022
                   Z -0.00001297  0.00002777  0.02631355 -0.03661460  0.00000590
  7   H            X -0.16536190  0.21879029 -0.05122910  0.65756406  0.41813412
                   Y -0.15796083 -0.09240273  0.33453721 -0.09489162  0.00079377
                   Z  0.00074776  0.01215521  0.11307711 -0.03439828  0.01826170

 TRANS. SAYVETZ    X  0.00000042 -0.00000143 -0.00000036 -0.00000007  0.00000022
                   Y  0.00000145 -0.00000231 -0.00000007 -0.00000001  0.00000135
                   Z  0.00000042 -0.00000139 -0.00000028  0.00000855  0.00000008
               TOTAL  0.00000157  0.00000305  0.00000046  0.00000855  0.00000137

   ROT. SAYVETZ    X -0.00009174 -0.00003133  0.00026524  0.00006939  0.00003897
                   Y -0.00002495  0.00003495  0.00008786  0.00002401 -0.00004572
                   Z -0.00007019 -0.00006558 -0.00005268  0.00013395  0.00020085
               TOTAL  0.00011818  0.00008065  0.00028434  0.00015276  0.00020965

                         16          17          18          19          20
       FREQUENCY:      1558.72     1636.52     2040.15     3200.19     3259.71  
        SYMMETRY:         A           A           A           A           A   
    REDUCED MASS:      1.40279     1.08907    10.31573     1.08951     1.05745
    IR INTENSITY:      0.89684     0.12157     4.32606     1.73088     0.33954

  1   C            X  0.12826883  0.01413138 -0.02130442  0.00407109 -0.00208245
                   Y  0.01620659 -0.08068894  0.00109380 -0.00077342 -0.06524401
                   Z -0.00001799 -0.00000812 -0.00000198 -0.00000705 -0.00024672
  2   C            X -0.02332562 -0.00252759  0.21503073  0.01388107  0.00159894
                   Y -0.05384603 -0.00234135 -0.06048694 -0.08126517  0.00166129
                   Z  0.00003270  0.00000256  0.00008603  0.00002436 -0.00000139
  3   O            X -0.04627657 -0.00221531 -0.14312647 -0.00108464 -0.00060336
                   Y  0.03995259  0.00203883  0.05273330  0.00123560  0.00014672
                   Z -0.00003018 -0.00000292 -0.00006354 -0.00000087 -0.00000020
  4   H            X  0.57396974  0.05584630 -0.07652303 -0.17132485  0.00178284
                   Y  0.04269864  0.00991073 -0.11651627  0.93890114 -0.01035275
                   Z  0.00010898  0.00001147  0.00000832 -0.00026880 -0.00001207
  5   H            X -0.41398230 -0.08562830  0.04243891 -0.00196561 -0.00280841
                   Y -0.06488042  0.52588157  0.00725552  0.00285210  0.38658021
                   Z  0.05649074 -0.41262847 -0.00921735  0.00769070  0.56887965
  6   F            X -0.01385489  0.00064699 -0.00231056 -0.00112932  0.00103452
                   Y -0.00524124 -0.00558510 -0.00147228  0.00067106 -0.00032387
                   Z -0.00000053 -0.00000163  0.00000036  0.00000032  0.00000114
  7   H            X -0.41390634 -0.08541757  0.04249279 -0.00196144 -0.00314341
                   Y -0.06492791  0.52576138  0.00727991  0.00280774  0.38461881
                   Z -0.05628648  0.41276014  0.00920871 -0.00762029 -0.56593195

 TRANS. SAYVETZ    X  0.00000236  0.00000253 -0.00000180 -0.00000132 -0.00000029
                   Y -0.00000146 -0.00000018 -0.00000308  0.00000153  0.00000104
                   Z -0.00000051 -0.00000014 -0.00000119 -0.00000007 -0.00000028
               TOTAL  0.00000282  0.00000254  0.00000376  0.00000202  0.00000111

   ROT. SAYVETZ    X  0.00005749 -0.00013199  0.00000651  0.00004111  0.00000431
                   Y -0.00017609  0.00000746  0.00007695  0.00000810 -0.00001104
                   Z  0.00018327  0.00001281 -0.00003891 -0.00000293 -0.00000342
               TOTAL  0.00026057  0.00013282  0.00008648  0.00004200  0.00001233

                         21
       FREQUENCY:      3314.55  
        SYMMETRY:         A   
    REDUCED MASS:      1.10991
    IR INTENSITY:      0.50060

  1   C            X -0.00001956
                   Y  0.00018268
                   Z -0.09146866
  2   C            X -0.00000602
                   Y  0.00000139
                   Z -0.00063899
  3   O            X  0.00000209
                   Y -0.00000109
                   Z  0.00013390
  4   H            X  0.00000424
                   Y -0.00003113
                   Z -0.00410488
  5   H            X  0.00565093
                   Y  0.38755354
                   Z  0.54188304
  6   F            X -0.00000218
                   Y  0.00000035
                   Z  0.00063631
  7   H            X -0.00534259
                   Y -0.38970332
                   Z  0.54481457

 TRANS. SAYVETZ    X  0.00000000
                   Y -0.00000000
                   Z  0.00000281
               TOTAL  0.00000281

   ROT. SAYVETZ    X  0.00000465
                   Y  0.00000226
                   Z  0.00000670
               TOTAL  0.00000846

 REFERENCE ON SAYVETZ CONDITIONS - A. SAYVETZ, J.CHEM.PHYS., 7, 383-389(1939).

 NOTE - THE MODES J,K ARE ORTHONORMALIZED ACCORDING TO
 SUM ON I   M(I) * (X(I,J)*X(I,K) + Y(I,J)*Y(I,K) + Z(I,J)*Z(I,K)) = DELTA(J,K)

  MODE FREQ(CM**-1)  SYMMETRY  RED. MASS  IR INTENS.
     1       2.526    A       12.518603    0.008762
     2       1.340    A       10.085883    0.011998
     3       0.470    A        9.007365    0.000422
     4       0.004    A        8.859484    0.000000
     5       0.038    A        8.813916    0.000012
     6       4.482    A        1.814025    0.010378
     7      94.703    A        2.946098    0.729129
     8     353.047    A        4.943690    0.902056
     9     576.420    A        8.947823    0.138681
    10     807.778    A        1.246364    0.015361
    11    1141.434    A        3.655717    0.354224
    12    1207.989    A        5.328246    2.651682
    13    1238.103    A        1.803225    0.048226
    14    1369.264    A        1.094074    0.034490
    15    1487.766    A        1.205066    0.357151
    16    1558.716    A        1.402790    0.896844
    17    1636.522    A        1.089066    0.121572
    18    2040.155    A       10.315725    4.326063
    19    3200.186    A        1.089506    1.730884
    20    3259.710    A        1.057446    0.339542
    21    3314.548    A        1.109913    0.500597

     -------------------------------
     THERMOCHEMISTRY AT T=  298.15 K
     -------------------------------

 USING IDEAL GAS, RIGID ROTOR, HARMONIC NORMAL MODE APPROXIMATIONS.
 P=  1.01325E+05 PASCAL.
 ALL FREQUENCIES ARE SCALED BY   1.00000
 THE MOMENTS OF INERTIA ARE (IN AMU*BOHR**2)
     44.53262   409.70557   443.03470
 THE ROTATIONAL SYMMETRY NUMBER IS  1.0
 THE ROTATIONAL CONSTANTS ARE (IN GHZ)
     40.48916     4.40094     4.06986
 THE HARMONIC ZERO POINT ENERGY IS (SCALED BY   1.000)
        0.053050 HARTREE/MOLECULE    11643.170485 CM**-1/MOLECULE 
       33.289528 KCAL/MOL              139.283386 KJ/MOL

               Q               LN Q
 ELEC.     1.00000E+00       0.000000
 TRANS.    1.91963E+07      16.770228
 ROT.      3.21837E+04      10.379214
 VIB.      3.67234E+00       1.300830
 TOT.      2.26880E+12      28.450273

              E         H         G         CV        CP        S
           KJ/MOL    KJ/MOL    KJ/MOL   J/MOL-K   J/MOL-K   J/MOL-K
 ELEC.      0.000     0.000     0.000     0.000     0.000     0.000
 TRANS.     3.718     6.197   -41.572    12.472    20.786   160.221
 ROT.       3.718     3.718   -25.729    12.472    12.472    98.769
 VIB.     143.024   143.024   136.059    25.868    25.868    23.363
 TOTAL    150.461   152.940    68.757    50.811    59.126   282.352
 VIB. THERMAL CORRECTION E(T)-E(0) = H(T)-H(0) =  3740.860 J/MOL

              E         H         G         CV        CP        S
         KCAL/MOL  KCAL/MOL  KCAL/MOL CAL/MOL-K CAL/MOL-K CAL/MOL-K
 ELEC.      0.000     0.000     0.000     0.000     0.000     0.000
 TRANS.     0.889     1.481    -9.936     2.981     4.968    38.294
 ROT.       0.889     0.889    -6.149     2.981     2.981    23.606
 VIB.      34.184    34.184    32.519     6.183     6.183     5.584
 TOTAL     35.961    36.554    16.433    12.144    14.131    67.484
 VIB. THERMAL CORRECTION E(T)-E(0) = H(T)-H(0) =   894.087 CAL/MOL
 ......END OF NORMAL COORDINATE ANALYSIS......
 STEP CPU TIME =     0.00 TOTAL CPU TIME =        8.9 (    0.1 MIN)
 TOTAL WALL CLOCK TIME=        9.0 SECONDS, CPU UTILIZATION IS  99.33%
               580000  WORDS OF DYNAMIC MEMORY USED
 EXECUTION OF GAMESS TERMINATED NORMALLY Fri Nov  3 17:29:58 2017
 DDI: 263640 bytes (0.3 MB / 0 MWords) used by master data server.

 ----------------------------------------
 CPU timing information for all processes
 ========================================
 0: 8.776 + 0.132 = 8.908
 ----------------------------------------
 ddikick.x: exited gracefully.
