
 Distributed Data Interface kickoff program.
 Initiating 1 compute processes on 1 nodes to run the following command:
 /usr/local/gamess-141205/gamess.00.x /home/webmodemo/webmo/guest/344647/input 

          ******************************************************
          *         GAMESS VERSION =  5 DEC 2014 (R1)          *
          *             FROM IOWA STATE UNIVERSITY             *
          * M.W.SCHMIDT, K.K.BALDRIDGE, J.A.BOATZ, S.T.ELBERT, *
          *   M.S.GORDON, J.H.JENSEN, S.KOSEKI, N.MATSUNAGA,   *
          *          K.A.NGUYEN, S.J.SU, T.L.WINDUS,           *
          *       TOGETHER WITH M.DUPUIS, J.A.MONTGOMERY       *
          *         J.COMPUT.CHEM.  14, 1347-1363(1993)        *
          **************** 64 BIT LINUX VERSION ****************

  SINCE 1993, STUDENTS AND POSTDOCS WORKING AT IOWA STATE UNIVERSITY
  AND ALSO IN THEIR VARIOUS JOBS AFTER LEAVING ISU HAVE MADE IMPORTANT
  CONTRIBUTIONS TO THE CODE:
     IVANA ADAMOVIC, CHRISTINE AIKENS, YURI ALEXEEV, POOJA ARORA,
     ANDREY ASADCHEV, ROB BELL, PRADIPTA BANDYOPADHYAY, JONATHAN BENTZ,
     BRETT BODE, KURT BRORSEN, CALEB CARLIN, GALINA CHABAN, WEI CHEN,
     CHEOL HO CHOI, PAUL DAY, ALBERT DEFUSCO, NUWAN DESILVA, TIM DUDLEY,
     DMITRI FEDOROV, GRAHAM FLETCHER, MARK FREITAG, KURT GLAESEMANN,
     DAN KEMP, GRANT MERRILL, NORIYUKI MINEZAWA, JONATHAN MULLIN,
     TAKESHI NAGATA, SEAN NEDD, HEATHER NETZLOFF, BOSILJKA NJEGIC, RYAN OLSON,
     MIKE PAK, SPENCER PRUITT, LUKE ROSKOP, JIM SHOEMAKER, LYUDMILA SLIPCHENKO,
     TONY SMITH, SAROM SOK, JIE SONG, TETSUYA TAKETSUGU, SIMON WEBB,
     PENG XU, SOOHAENG YOO, FEDERICO ZAHARIEV

  ADDITIONAL CODE HAS BEEN PROVIDED BY COLLABORATORS IN OTHER GROUPS:
     IOWA STATE UNIVERSITY:
          JOE IVANIC, AARON WEST, LAIMUTIS BYTAUTAS, KLAUS RUEDENBERG
     UNIVERSITY OF TOKYO: KIMIHIKO HIRAO, TAKAHITO NAKAJIMA,
          TAKAO TSUNEDA, MUNEAKI KAMIYA, SUSUMU YANAGISAWA,
          KIYOSHI YAGI, MAHITO CHIBA, SEIKEN TOKURA, NAOAKI KAWAKAMI
     UNIVERSITY OF AARHUS: FRANK JENSEN
     UNIVERSITY OF IOWA: VISVALDAS KAIRYS, HUI LI
     NATIONAL INST. OF STANDARDS AND TECHNOLOGY: WALT STEVENS, DAVID GARMER
     UNIVERSITY OF PISA: BENEDETTA MENNUCCI, JACOPO TOMASI
     UNIVERSITY OF MEMPHIS: HENRY KURTZ, PRAKASHAN KORAMBATH
     UNIVERSITY OF ALBERTA: TOBY ZENG, MARIUSZ KLOBUKOWSKI
     UNIVERSITY OF NEW ENGLAND: MARK SPACKMAN
     MIE UNIVERSITY: HIROAKI UMEDA
     NAT. INST. OF ADVANCED INDUSTRIAL SCIENCE AND TECHNOLOGY: KAZUO KITAURA
     MICHIGAN STATE UNIVERSITY:
          KAROL KOWALSKI, MARTA WLOCH, JEFFREY GOUR, JESSE LUTZ,
          WEI LI, PIOTR PIECUCH
     UNIVERSITY OF SILESIA: MONIKA MUSIAL, STANISLAW KUCHARSKI
     FACULTES UNIVERSITAIRES NOTRE-DAME DE LA PAIX:
          OLIVIER QUINET, BENOIT CHAMPAGNE
     UNIVERSITY OF CALIFORNIA - SANTA BARBARA: BERNARD KIRTMAN
     INSTITUTE FOR MOLECULAR SCIENCE:
          KAZUYA ISHIMURA, MICHIO KATOUDA, AND SHIGERU NAGASE
     UNIVERSITY OF NOTRE DAME: ANNA POMOGAEVA, DAN CHIPMAN
     KYUSHU UNIVERSITY:
          HARUYUKI NAKANO,
          FENG LONG GU, JACEK KORCHOWIEC, MARCIN MAKOWSKI, AND YURIKO AOKI,
          HIROTOSHI MORI AND EISAKU MIYOSHI
     PENNSYLVANIA STATE UNIVERSITY:
          TZVETELIN IORDANOV, CHET SWALINA, JONATHAN SKONE,
          SHARON HAMMES-SCHIFFER
     WASEDA UNIVERSITY:
          MASATO KOBAYASHI, TOMOKO AKAMA, TSUGUKI TOUMA,
          TAKESHI YOSHIKAWA, YASUHIRO IKABATA, HIROMI NAKAI
     NANJING UNIVERSITY: SHUHUA LI
     UNIVERSITY OF NEBRASKA:
          PEIFENG SU, DEJUN SI, NANDUN THELLAMUREGE, YALI WANG, HUI LI
     UNIVERSITY OF ZURICH: ROBERTO PEVERATI, KIM BALDRIDGE
     N. COPERNICUS UNIVERSITY AND JACKSON STATE UNIVERSITY:
          MARIA BARYSZ
     UNIVERSITY OF COPENHAGEN: CASPER STEINMANN
     TOKYO INSTITUTE OF TECHNOLOGY: HIROYA NAKATA
     NAGOYA UNIVERSITY: YOSHIO NISHIMOTO, STEPHAN IRLE

 EXECUTION OF GAMESS BEGUN Fri Nov  3 17:19:22 2017

            ECHO OF THE FIRST FEW INPUT CARDS -
 INPUT CARD> $CONTRL SCFTYP=RHF RUNTYP=OPTIMIZE                                             
 INPUT CARD>       ICHARG=0 MULT=1 COORD=ZMTMPC $END                                        
 INPUT CARD> $STATPT NSTEP=100 $END                                                         
 INPUT CARD> $BASIS GBASIS=N31 NGAUSS=6 NDFUNC=1 $END                                       
 INPUT CARD> $DATA                                                                          
 INPUT CARD>C2H3OF                                                                          
 INPUT CARD>C1 1                                                                            
 INPUT CARD>C 0.0000000 0 0.0000000 0 0.0000000 0 0 0 0                                     
 INPUT CARD>C 1.3106812 1 0.0000000 0 0.0000000 0 1 0 0                                     
 INPUT CARD>O 1.3522771 1 123.03947 1 0.0000000 0 2 1 0                                     
 INPUT CARD>H 1.4857191 1 90.541464 1 -32.719341 1 3 2 1                                    
 INPUT CARD>H 1.0745641 1 119.04363 1 178.08351 1 2 1 3                                     
 INPUT CARD>F 1.3293987 1 122.63854 1 1.5566502 1 1 2 3                                     
 INPUT CARD>H 1.0699945 1 123.52712 1 -177.60320 1 1 2 3                                    
 INPUT CARD> $END                                                                           
 INPUT CARD>                                                                                
    1000000 WORDS OF MEMORY AVAILABLE

     BASIS OPTIONS
     -------------
     GBASIS=N31          IGAUSS=       6      POLAR=POPN31  
     NDFUNC=       1     NFFUNC=       0     DIFFSP=       F
     NPFUNC=       0      DIFFS=       F     BASNAM=        


     RUN TITLE
     ---------
 C2H3OF                                                                          

 THE POINT GROUP OF THE MOLECULE IS C1      
 THE ORDER OF THE PRINCIPAL AXIS IS     1

 YOUR FULLY SUBSTITUTED Z-MATRIX IS
 C   
 C      1   1.3106812
 O      2   1.3522771  1  123.0395
 H      3   1.4857191  2   90.5415  1  -32.7193  0
 H      2   1.0745641  1  119.0436  3  178.0835  0
 F      1   1.3293987  2  122.6385  3    1.5567  0
 H      1   1.0699945  2  123.5271  3 -177.6032  0

 THE MOMENTS OF INERTIA ARE (AMU-ANGSTROM**2)
 IXX=    25.001   IYY=    80.581   IZZ=   104.455

 ATOM      ATOMIC                      COORDINATES (BOHR)
           CHARGE         X                   Y                   Z
 C           6.0    -1.1083568691       -1.2219978203       -0.0224695552
 C           6.0     1.3679927313       -1.1746440728       -0.0338199836
 O           8.0     2.7206508045        0.9904051090        0.0807090817
 H           1.0     0.7221877984        2.3460595320       -1.3514136972
 H           1.0     2.3873692637       -2.9302853743       -0.0792097159
 F           9.0    -2.5031624709        0.8663057734        0.0457258494
 H           1.0    -2.1928435635       -2.9284489483       -0.0420310750

          INTERNUCLEAR DISTANCES (ANGS.)
          ------------------------------

                1 C          2 C          3 O          4 H          5 H     

   1 C       0.0000000    1.3106812 *  2.3407749 *  2.2356107 *  2.0591433 *
   2 C       1.3106812 *  0.0000000    1.3522771 *  2.0184121 *  1.0745641 *
   3 O       2.3407749 *  1.3522771 *  0.0000000    1.4857191 *  2.0839417 *
   4 H       2.2356107 *  2.0184121 *  1.4857191 *  0.0000000    3.0042706  
   5 H       2.0591433 *  1.0745641 *  2.0839417 *  3.0042706    0.0000000  
   6 F       1.3293987 *  2.3161796 *  2.7651650 *  2.0181404 *  3.2769283  
   7 H       1.0699945 *  2.1004707 *  3.3264550    3.2634550    2.4238245 *

                6 F          7 H     

   1 C       1.3293987 *  1.0699945 *
   2 C       2.3161796 *  2.1004707 *
   3 O       2.7651650 *  3.3264550  
   4 H       2.0181404 *  3.2634550  
   5 H       3.2769283    2.4238245 *
   6 F       0.0000000    2.0153361 *
   7 H       2.0153361 *  0.0000000  

  * ... LESS THAN  3.000


     ATOMIC BASIS SET
     ----------------
 THE CONTRACTED PRIMITIVE FUNCTIONS HAVE BEEN UNNORMALIZED
 THE CONTRACTED BASIS FUNCTIONS ARE NOW NORMALIZED TO UNITY

  SHELL TYPE  PRIMITIVE        EXPONENT          CONTRACTION COEFFICIENT(S)

 C         

      1   S       1          3047.5248800    0.001834737132
      1   S       2           457.3695180    0.014037322813
      1   S       3           103.9486850    0.068842622264
      1   S       4            29.2101553    0.232184443216
      1   S       5             9.2866630    0.467941348435
      1   S       6             3.1639270    0.362311985337

      2   L       7             7.8682723   -0.119332419775    0.068999066591
      2   L       8             1.8812885   -0.160854151696    0.316423960957
      2   L       9             0.5442493    1.143456437840    0.744308290898

      3   L      10             0.1687145    1.000000000000    1.000000000000

      4   D      11             0.8000000    1.000000000000

 C         

      5   S      12          3047.5248800    0.001834737132
      5   S      13           457.3695180    0.014037322813
      5   S      14           103.9486850    0.068842622264
      5   S      15            29.2101553    0.232184443216
      5   S      16             9.2866630    0.467941348435
      5   S      17             3.1639270    0.362311985337

      6   L      18             7.8682723   -0.119332419775    0.068999066591
      6   L      19             1.8812885   -0.160854151696    0.316423960957
      6   L      20             0.5442493    1.143456437840    0.744308290898

      7   L      21             0.1687145    1.000000000000    1.000000000000

      8   D      22             0.8000000    1.000000000000

 O         

      9   S      23          5484.6716600    0.001831074430
      9   S      24           825.2349460    0.013950172200
      9   S      25           188.0469580    0.068445078098
      9   S      26            52.9645000    0.232714335992
      9   S      27            16.8975704    0.470192897984
      9   S      28             5.7996353    0.358520852987

     10   L      29            15.5396162   -0.110777549525    0.070874268231
     10   L      30             3.5999336   -0.148026262701    0.339752839147
     10   L      31             1.0137618    1.130767015354    0.727158577316

     11   L      32             0.2700058    1.000000000000    1.000000000000

     12   D      33             0.8000000    1.000000000000

 H         

     13   S      34            18.7311370    0.033494604338
     13   S      35             2.8253944    0.234726953484
     13   S      36             0.6401217    0.813757326146

     14   S      37             0.1612778    1.000000000000

 H         

     15   S      38            18.7311370    0.033494604338
     15   S      39             2.8253944    0.234726953484
     15   S      40             0.6401217    0.813757326146

     16   S      41             0.1612778    1.000000000000

 F         

     17   S      42          7001.7130900    0.001819616901
     17   S      43          1051.3660900    0.013916079607
     17   S      44           239.2856900    0.068405324535
     17   S      45            67.3974453    0.233185760119
     17   S      46            21.5199573    0.471267439240
     17   S      47             7.4031013    0.356618546182

     18   L      48            20.8479528   -0.108506975109    0.071628724237
     18   L      49             4.8083083   -0.146451658147    0.345912102697
     18   L      50             1.3440699    1.128688581135    0.722469956367

     19   L      51             0.3581514    1.000000000000    1.000000000000

     20   D      52             0.8000000    1.000000000000

 H         

     21   S      53            18.7311370    0.033494604338
     21   S      54             2.8253944    0.234726953484
     21   S      55             0.6401217    0.813757326146

     22   S      56             0.1612778    1.000000000000

 TOTAL NUMBER OF BASIS SET SHELLS             =   22
 NUMBER OF CARTESIAN GAUSSIAN BASIS FUNCTIONS =   66
 NUMBER OF ELECTRONS                          =   32
 CHARGE OF MOLECULE                           =    0
 SPIN MULTIPLICITY                            =    1
 NUMBER OF OCCUPIED ORBITALS (ALPHA)          =   16
 NUMBER OF OCCUPIED ORBITALS (BETA )          =   16
 TOTAL NUMBER OF ATOMS                        =    7
 THE NUCLEAR REPULSION ENERGY IS      116.6363480226

     $CONTRL OPTIONS
     ---------------
 SCFTYP=RHF          RUNTYP=OPTIMIZE     EXETYP=RUN     
 MPLEVL=       0     CITYP =NONE         CCTYP =NONE         VBTYP =NONE    
 DFTTYP=NONE         TDDFT =NONE    
 MULT  =       1     ICHARG=       0     NZVAR =       0     COORD =ZMTMPC  
 PP    =NONE         RELWFN=NONE         LOCAL =NONE         NUMGRD=       F
 ISPHER=      -1     NOSYM =       0     MAXIT =      30     UNITS =ANGS    
 PLTORB=       F     MOLPLT=       F     AIMPAC=       F     FRIEND=        
 NPRINT=       7     IREST =       0     GEOM  =INPUT   
 NORMF =       0     NORMP =       0     ITOL  =      20     ICUT  =       9
 INTTYP=BEST         GRDTYP=BEST         QMTTOL= 1.0E-06

     $SYSTEM OPTIONS
     ---------------
  REPLICATED MEMORY=     1000000 WORDS (ON EVERY NODE).
 DISTRIBUTED MEMDDI=           0 MILLION WORDS IN AGGREGATE,
 MEMDDI DISTRIBUTED OVER   1 PROCESSORS IS           0 WORDS/PROCESSOR.
 TOTAL MEMORY REQUESTED ON EACH PROCESSOR=     1000000 WORDS.
 TIMLIM=      525600.00 MINUTES, OR     365.0 DAYS.
 PARALL= F  BALTYP=  DLB     KDIAG=    0  COREFL= F
 MXSEQ2=     300 MXSEQ3=     150  mem10=         0

          ----------------
          PROPERTIES INPUT
          ----------------

     MOMENTS            FIELD           POTENTIAL          DENSITY
 IEMOM =       1   IEFLD =       0   IEPOT =       0   IEDEN =       0
 WHERE =COMASS     WHERE =NUCLEI     WHERE =NUCLEI     WHERE =NUCLEI  
 OUTPUT=BOTH       OUTPUT=BOTH       OUTPUT=BOTH       OUTPUT=BOTH    
 IEMINT=       0   IEFINT=       0                     IEDINT=       0
                                                       MORB  =       0
          EXTRAPOLATION IN EFFECT
          SOSCF IN EFFECT
 ORBITAL PRINTING OPTION: NPREO=     1    66     2     1

     -------------------------------
     INTEGRAL TRANSFORMATION OPTIONS
     -------------------------------
     NWORD  =            0
     CUTOFF = 1.0E-09     MPTRAN =       0
     DIRTRF =       F     AOINTS =DUP     

          ----------------------
          INTEGRAL INPUT OPTIONS
          ----------------------
 NOPK  =       1 NORDER=       0 SCHWRZ=       T

   --- ENCODED Z MATRIX ---
 COORD  TYPE   I   J   K   L   M   N
    1      1    2   1
    2      1    3   2
    3      2    3   2   1
    4      1    4   3
    5      2    4   3   2
    6      3    4   3   2   1
    7      1    5   2
    8      2    5   2   1
    9      3    5   2   1   3
   10      1    6   1
   11      2    6   1   2
   12      3    6   1   2   3
   13      1    7   1
   14      2    7   1   2
   15      3    7   1   2   3

 THE DETERMINANT OF THE G MATRIX IS 10**(   -11)

     ------------------------------------------
     THE POINT GROUP IS C1 , NAXIS= 1, ORDER= 1
     ------------------------------------------

     DIMENSIONS OF THE SYMMETRY SUBSPACES ARE
 A   =   66

 ..... DONE SETTING UP THE RUN .....
 STEP CPU TIME =     0.00 TOTAL CPU TIME =        0.0 (    0.0 MIN)
 TOTAL WALL CLOCK TIME=        0.0 SECONDS, CPU UTILIZATION IS   0.00%


          -----------------------------
          STATIONARY POINT LOCATION RUN
          -----------------------------

 OBTAINING INITIAL HESSIAN, HESS=GUESS   
 CARTESIAN COORDINATE OPTIMIZATION USING BADGER'S RULE FORCE CONSTANT GUESS

          PARAMETERS CONTROLLING GEOMETRY SEARCH ARE
          METHOD =QA                  UPHESS =BFGS    
          NNEG   =         0          NFRZ   =         0
          NSTEP  =       100          IFOLOW =         1
          HESS   =GUESS               RESTAR =         F
          IHREP  =         0          HSSEND =         F
          NPRT   =         0          NPUN   =         0
          OPTTOL = 1.000E-04          RMIN   = 1.500E-03
          RMAX   = 1.000E-01          RLIM   = 7.000E-02
          DXMAX  = 3.000E-01          PURIFY =         F
          MOVIE  =         F          TRUPD  =         T
          TRMAX  = 5.000E-01          TRMIN  = 5.000E-02
          ITBMAT =         5          STPT   =         F
          STSTEP = 1.000E-02          PROJCT=          T

 BEGINNING GEOMETRY SEARCH POINT NSERCH=   0 ...

 COORDINATES OF ALL ATOMS ARE (ANGS)
   ATOM   CHARGE       X              Y              Z
 ------------------------------------------------------------
 C           6.0  -0.5865172392  -0.6466534451  -0.0118903774
 C           6.0   0.7239106305  -0.6215949193  -0.0178967659
 O           8.0   1.4397065089   0.5240998512   0.0427094098
 H           1.0   0.3821653526   1.2414813297  -0.7151373829
 H           1.0   1.2633414999  -1.5506403539  -0.0419159796
 F           9.0  -1.3246166308   0.4584293062   0.0241970792
 H           1.0  -1.1604029249  -1.5496685590  -0.0222418886

 THE CURRENT FULLY SUBSTITUTED Z-MATRIX IS
 C   
 C      1   1.3106812
 O      2   1.3522771  1   123.0394700
 H      3   1.4857191  2    90.5414640  1   -32.7193410  0
 H      2   1.0745641  1   119.0436300  3   178.0835100  0
 F      1   1.3293987  2   122.6385400  3     1.5566502  0
 H      1   1.0699945  2   123.5271200  3  -177.6032000  0

          ********************
          1 ELECTRON INTEGRALS
          ********************
 ...... END OF ONE-ELECTRON INTEGRALS ......
 STEP CPU TIME =     0.00 TOTAL CPU TIME =        0.0 (    0.0 MIN)
 TOTAL WALL CLOCK TIME=        0.0 SECONDS, CPU UTILIZATION IS   0.00%

          -------------
          GUESS OPTIONS
          -------------
          GUESS =HUCKEL            NORB  =       0          NORDER=       0
          MIX   =       F          PRTMO =       F          PUNMO =       F
          TOLZ  = 1.0E-08          TOLE  = 1.0E-05
          SYMDEN=       F          PURIFY=       F

 INITIAL GUESS ORBITALS GENERATED BY HUCKEL   ROUTINE.
 HUCKEL GUESS REQUIRES     39109 WORDS.

 SYMMETRIES FOR INITIAL GUESS ORBITALS FOLLOW.   BOTH SET(S).
    16 ORBITALS ARE OCCUPIED (    4 CORE ORBITALS).
     5=A        6=A        7=A        8=A        9=A       10=A       11=A   
    12=A       13=A       14=A       15=A       16=A       17=A       18=A   
    19=A       20=A       21=A       22=A       23=A       24=A       25=A   
    26=A   
 ...... END OF INITIAL ORBITAL SELECTION ......
 STEP CPU TIME =     0.01 TOTAL CPU TIME =        0.0 (    0.0 MIN)
 TOTAL WALL CLOCK TIME=        0.0 SECONDS, CPU UTILIZATION IS  50.00%

                    ----------------------
                    AO INTEGRAL TECHNOLOGY
                    ----------------------
     S,P,L SHELL ROTATED AXIS INTEGRALS, REPROGRAMMED BY
        KAZUYA ISHIMURA (IMS) AND JOSE SIERRA (SYNSTAR).
     S,P,D,L SHELL ROTATED AXIS INTEGRALS PROGRAMMED BY
        KAZUYA ISHIMURA (INSTITUTE FOR MOLECULAR SCIENCE).
     S,P,D,F,G SHELL TO TOTAL QUARTET ANGULAR MOMENTUM SUM 5,
        ERIC PROGRAM BY GRAHAM FLETCHER (ELORET AND NASA ADVANCED
        SUPERCOMPUTING DIVISION, AMES RESEARCH CENTER).
     S,P,D,F,G,L SHELL GENERAL RYS QUADRATURE PROGRAMMED BY
        MICHEL DUPUIS (PACIFIC NORTHWEST NATIONAL LABORATORY).

          --------------------
          2 ELECTRON INTEGRALS
          --------------------

 THE -PK- OPTION IS OFF, THE INTEGRALS ARE NOT IN SUPERMATRIX FORM.
 STORING   15000 INTEGRALS/RECORD ON DISK, USING 12 BYTES/INTEGRAL.
 TWO ELECTRON INTEGRAL EVALUATION REQUIRES   90649 WORDS OF MEMORY.
 SCHWARZ INEQUALITY OVERHEAD:      2208 INTEGRALS, T=        0.00
 II,JST,KST,LST =  1  1  1  1 NREC =         1 INTLOC =    1
 II,JST,KST,LST =  2  1  1  1 NREC =         1 INTLOC =    2
 II,JST,KST,LST =  3  1  1  1 NREC =         1 INTLOC =   34
 II,JST,KST,LST =  4  1  1  1 NREC =         1 INTLOC =  214
 II,JST,KST,LST =  5  1  1  1 NREC =         1 INTLOC = 1189
 II,JST,KST,LST =  6  1  1  1 NREC =         1 INTLOC = 3224
 II,JST,KST,LST =  7  1  1  1 NREC =         2 INTLOC =  966
 II,JST,KST,LST =  8  1  1  1 NREC =         3 INTLOC = 8207
 II,JST,KST,LST =  9  1  1  1 NREC =         7 INTLOC = 6113
 II,JST,KST,LST = 10  1  1  1 NREC =         8 INTLOC = 4471
 II,JST,KST,LST = 11  1  1  1 NREC =        13 INTLOC = 3188
 II,JST,KST,LST = 12  1  1  1 NREC =        20 INTLOC = 2675
 II,JST,KST,LST = 13  1  1  1 NREC =        35 INTLOC = 1899
 II,JST,KST,LST = 14  1  1  1 NREC =        38 INTLOC = 5283
 II,JST,KST,LST = 15  1  1  1 NREC =        41 INTLOC =12096
 II,JST,KST,LST = 16  1  1  1 NREC =        45 INTLOC = 6967
 II,JST,KST,LST = 17  1  1  1 NREC =        49 INTLOC = 5627
 II,JST,KST,LST = 18  1  1  1 NREC =        52 INTLOC = 1898
 II,JST,KST,LST = 19  1  1  1 NREC =        68 INTLOC = 4557
 II,JST,KST,LST = 20  1  1  1 NREC =        91 INTLOC = 5659
 II,JST,KST,LST = 21  1  1  1 NREC =       133 INTLOC =14424
 II,JST,KST,LST = 22  1  1  1 NREC =       142 INTLOC = 1515
 SCHWARZ INEQUALITY TEST SKIPPED        2327 INTEGRAL BLOCKS.
 TOTAL NUMBER OF NONZERO TWO-ELECTRON INTEGRALS =             2255717
        151 INTEGRAL RECORDS WERE STORED ON DISK FILE  8.
  ...... END OF TWO-ELECTRON INTEGRALS .....
 STEP CPU TIME =     0.18 TOTAL CPU TIME =        0.2 (    0.0 MIN)
 TOTAL WALL CLOCK TIME=        0.2 SECONDS, CPU UTILIZATION IS  95.00%

          --------------------------
                 RHF SCF CALCULATION
          --------------------------

     NUCLEAR ENERGY =       116.6363480226
     MAXIT =   30     NPUNCH=    2
     EXTRAP=T  DAMP=F  SHIFT=F  RSTRCT=F  DIIS=F  DEM=F  SOSCF=T
     DENSITY MATRIX CONV=  1.00E-05
     SOSCF WILL OPTIMIZE     800 ORBITAL ROTATIONS, SOGTOL=   0.250
     MEMORY REQUIRED FOR RHF ITERS=     64616 WORDS.

 ITER EX DEM     TOTAL ENERGY        E CHANGE  DENSITY CHANGE     ORB. GRAD
   1  0  0     -250.9101276930  -250.9101276930   0.332877128   0.000000000
          ---------------START SECOND ORDER SCF---------------
   2  1  0     -251.5690874394    -0.6589597464   0.090370918   0.044758760
   3  2  0     -251.6002692853    -0.0311818459   0.052979874   0.022310027
   4  3  0     -251.6087900280    -0.0085207427   0.010156831   0.006116060
   5  4  0     -251.6092362684    -0.0004462404   0.002742146   0.001980072
   6  5  0     -251.6093011786    -0.0000649102   0.001668109   0.000897873
   7  6  0     -251.6093121200    -0.0000109414   0.001488278   0.000436822
   8  7  0     -251.6093160083    -0.0000038883   0.000423782   0.000173916
   9  8  0     -251.6093167090    -0.0000007008   0.000298626   0.000081268
  10  9  0     -251.6093168760    -0.0000001670   0.000139048   0.000031170
  11 10  0     -251.6093169058    -0.0000000298   0.000040974   0.000017573
  12 11  0     -251.6093169114    -0.0000000056   0.000018807   0.000003673
  13 12  0     -251.6093169120    -0.0000000006   0.000003451   0.000001322
  14 13  0     -251.6093169121    -0.0000000000   0.000001158   0.000000324

          -----------------
          DENSITY CONVERGED
          -----------------
     TIME TO FORM FOCK OPERATORS=       0.5 SECONDS (       0.0 SEC/ITER)
     TIME TO SOLVE SCF EQUATIONS=       0.0 SECONDS (       0.0 SEC/ITER)

 FINAL RHF ENERGY IS     -251.6093169121 AFTER  14 ITERATIONS

          ------------
          EIGENVECTORS
          ------------

                      1          2          3          4          5
                  -26.3253   -20.6218   -11.3035   -11.2957    -1.6406
                     A          A          A          A          A   
    1  C  1  S   -0.000013   0.000001   0.988365  -0.120249  -0.058630
    2  C  1  S    0.000337   0.000023   0.026917  -0.003637   0.098721
    3  C  1  X   -0.000308  -0.000049  -0.001135  -0.000008  -0.048424
    4  C  1  Y    0.000484  -0.000027   0.001743  -0.000257   0.077627
    5  C  1  Z    0.000022   0.000002  -0.000018  -0.000003   0.001840
    6  C  1  S    0.000295  -0.000383  -0.008228   0.005456   0.023257
    7  C  1  X    0.000423  -0.000189  -0.001262   0.002036  -0.009209
    8  C  1  Y    0.000028   0.000075   0.001638  -0.001000  -0.009522
    9  C  1  Z   -0.000020   0.000013   0.000090  -0.000014  -0.000386
   10  C  1 XX    0.000074  -0.000025  -0.001275  -0.000037   0.000062
   11  C  1 YY    0.000140   0.000005  -0.001326  -0.000260   0.014389
   12  C  1 ZZ   -0.000092  -0.000023  -0.002486   0.000203  -0.010449
   13  C  1 XY   -0.000142  -0.000078  -0.000505   0.000132  -0.017748
   14  C  1 XZ   -0.000007   0.000000  -0.000012   0.000015  -0.000700
   15  C  1 YZ    0.000005  -0.000000   0.000033  -0.000015   0.000646
   16  C  2  S    0.000005  -0.000014   0.119508   0.988428  -0.009719
   17  C  2  S    0.000095   0.000435   0.002946   0.027051   0.018235
   18  C  2  X    0.000049   0.000160   0.000178   0.000419  -0.015078
   19  C  2  Y   -0.000008   0.000228   0.000073   0.000907   0.006897
   20  C  2  Z    0.000006   0.000020  -0.000014  -0.000008   0.000072
   21  C  2  S   -0.000457   0.000229   0.002535  -0.009842   0.017517
   22  C  2  X    0.000312  -0.000450  -0.001584   0.001926  -0.008278
   23  C  2  Y   -0.000076  -0.000057  -0.001012   0.001848   0.008448
   24  C  2  Z   -0.000007  -0.000059  -0.000018   0.000056   0.000234
   25  C  2 XX   -0.000089  -0.000088  -0.000280  -0.001402   0.004088
   26  C  2 YY   -0.000027  -0.000208  -0.000599  -0.001466  -0.000673
   27  C  2 ZZ    0.000000  -0.000089  -0.000378  -0.002536  -0.000959
   28  C  2 XY    0.000049  -0.000113   0.000017   0.000323  -0.002097
   29  C  2 XZ    0.000004   0.000001  -0.000011   0.000027  -0.000066
   30  C  2 YZ   -0.000001  -0.000012  -0.000014   0.000034  -0.000078
   31  O  3  S   -0.000000   0.994798  -0.000032  -0.000086  -0.005197
   32  O  3  S   -0.000004   0.020711  -0.000108   0.000609   0.012843
   33  O  3  X   -0.000003  -0.001096  -0.000016  -0.000105  -0.004846
   34  O  3  Y   -0.000010  -0.000681  -0.000008  -0.000115  -0.002724
   35  O  3  Z    0.000011  -0.000391  -0.000025  -0.000031  -0.000516
   36  O  3  S    0.000044   0.003712   0.000637  -0.001726   0.002941
   37  O  3  X   -0.000032   0.000451  -0.000037   0.000806  -0.000778
   38  O  3  Y    0.000053   0.000199  -0.000190   0.001292  -0.001331
   39  O  3  Z   -0.000035   0.000143   0.000066   0.000164   0.000751
   40  O  3 XX   -0.000004  -0.003854   0.000048   0.000055   0.001647
   41  O  3 YY   -0.000006  -0.003860  -0.000086  -0.000437   0.001220
   42  O  3 ZZ    0.000014  -0.003757  -0.000061   0.000465   0.000107
   43  O  3 XY   -0.000003   0.000039   0.000067  -0.000483   0.000516
   44  O  3 XZ    0.000007  -0.000134  -0.000012  -0.000054   0.000094
   45  O  3 YZ   -0.000005   0.000098   0.000009  -0.000047   0.000096
   46  H  4  S    0.000011   0.000185  -0.000006   0.000147   0.005122
   47  H  4  S   -0.000151  -0.000124   0.000297   0.000152   0.006595
   48  H  5  S    0.000016  -0.000005  -0.000123  -0.000087   0.001508
   49  H  5  S   -0.000080   0.000050  -0.000061   0.002262   0.002854
   50  F  6  S    0.994406   0.000006   0.000028  -0.000033  -0.220647
   51  F  6  S    0.017735   0.000031   0.001232  -0.000405   0.515096
   52  F  6  X    0.000566  -0.000003   0.000222  -0.000052   0.041026
   53  F  6  Y   -0.000749  -0.000001  -0.000345   0.000052  -0.056628
   54  F  6  Z   -0.000066   0.000005  -0.000017  -0.000004  -0.003531
   55  F  6  S    0.008329  -0.000117  -0.003405   0.001174   0.431513
   56  F  6  X   -0.000388  -0.000019  -0.001231   0.000262   0.027404
   57  F  6  Y    0.000502   0.000043   0.001954  -0.000427  -0.030901
   58  F  6  Z    0.000022  -0.000009   0.000089  -0.000002  -0.004121
   59  F  6 XX   -0.004754   0.000009   0.000424  -0.000063   0.028050
   60  F  6 YY   -0.004925   0.000004  -0.000262  -0.000063   0.032723
   61  F  6 ZZ   -0.004607   0.000027   0.000977  -0.000307   0.021047
   62  F  6 XY    0.000275   0.000013   0.000779  -0.000209  -0.008712
   63  F  6 XZ    0.000011  -0.000002   0.000037  -0.000002  -0.001367
   64  F  6 YZ   -0.000012  -0.000002  -0.000046   0.000013   0.000183
   65  H  7  S   -0.000006   0.000028  -0.000130  -0.000108   0.013238
   66  H  7  S    0.000072   0.000010   0.002147  -0.000551  -0.006399

                      6          7          8          9         10
                   -1.3565    -1.0324    -0.8230    -0.7612    -0.7057
                     A          A          A          A          A   
    1  C  1  S   -0.019771  -0.158038   0.075257   0.003936   0.013117
    2  C  1  S    0.039890   0.310474  -0.150199  -0.011301  -0.023935
    3  C  1  X    0.043820   0.133627   0.225518   0.164390  -0.021387
    4  C  1  Y    0.003692  -0.030090  -0.040478   0.207237   0.076135
    5  C  1  Z   -0.000318  -0.002506  -0.001777  -0.007614   0.153543
    6  C  1  S    0.028187   0.205564  -0.122491  -0.017946  -0.044647
    7  C  1  X    0.008866   0.017224   0.047559   0.086185  -0.000637
    8  C  1  Y    0.018174  -0.037911   0.059077   0.064682   0.016016
    9  C  1  Z   -0.000679  -0.003630   0.003287  -0.005984   0.090800
   10  C  1 XX    0.005480   0.014470   0.001776  -0.009368  -0.002071
   11  C  1 YY   -0.002798  -0.002337  -0.020647   0.002004   0.002302
   12  C  1 ZZ   -0.000908  -0.011476   0.009722  -0.001065   0.000209
   13  C  1 XY    0.004825   0.007222   0.007090  -0.004681  -0.008286
   14  C  1 XZ    0.000034  -0.000471   0.000215  -0.000473  -0.005407
   15  C  1 YZ   -0.000365  -0.000503  -0.000546  -0.001344   0.016376
   16  C  2  S   -0.092801  -0.125415  -0.104513   0.016124  -0.012250
   17  C  2  S    0.171630   0.246843   0.211523  -0.033549   0.027072
   18  C  2  X    0.053098  -0.177028   0.042045  -0.164917   0.061785
   19  C  2  Y    0.106102  -0.069205  -0.081664   0.135191   0.019560
   20  C  2  Z    0.004061  -0.003369  -0.002960  -0.004890   0.072503
   21  C  2  S    0.041327   0.188070   0.180048  -0.084000   0.028724
   22  C  2  X    0.001474  -0.026258   0.010550  -0.038079   0.013991
   23  C  2  Y   -0.033372  -0.000026  -0.084574   0.061973   0.006606
   24  C  2  Z   -0.001652  -0.002832  -0.005109  -0.002252   0.026616
   25  C  2 XX    0.001603   0.016543   0.002136   0.002411   0.000355
   26  C  2 YY    0.017356  -0.006985   0.009071  -0.009362   0.004514
   27  C  2 ZZ   -0.012994  -0.008559  -0.008698   0.001140  -0.002115
   28  C  2 XY    0.017694  -0.010939  -0.007729  -0.001948   0.000269
   29  C  2 XZ    0.001630   0.000212   0.000060   0.000875  -0.006478
   30  C  2 YZ    0.001225  -0.000813   0.000013  -0.001243   0.002848
   31  O  3  S   -0.200841   0.069590   0.045477   0.011355   0.009210
   32  O  3  S    0.446435  -0.157148  -0.107036  -0.033710  -0.020032
   33  O  3  X   -0.059118  -0.041167  -0.046667  -0.106372  -0.019878
   34  O  3  Y   -0.082285  -0.035463  -0.120014   0.064131  -0.083898
   35  O  3  Z   -0.007684   0.000761  -0.008009  -0.001363   0.054639
   36  O  3  S    0.462451  -0.206939  -0.130968  -0.031234  -0.037879
   37  O  3  X   -0.050492  -0.013860  -0.028007  -0.073225  -0.009927
   38  O  3  Y   -0.043555  -0.013560  -0.075338   0.036754  -0.044721
   39  O  3  Z   -0.013784   0.002359   0.000750  -0.003264   0.035830
   40  O  3 XX    0.006333   0.003230  -0.001226   0.010664  -0.001326
   41  O  3 YY    0.010164   0.002566   0.007575  -0.008869   0.004401
   42  O  3 ZZ   -0.004004  -0.001452  -0.003203  -0.003406  -0.002767
   43  O  3 XY    0.009455   0.005863   0.009615   0.000630   0.005009
   44  O  3 XZ    0.004986  -0.000328  -0.001037   0.004170  -0.004825
   45  O  3 YZ   -0.000506   0.001050   0.002699  -0.001978  -0.000797
   46  H  4  S    0.037824  -0.010995  -0.017529   0.057949  -0.039115
   47  H  4  S    0.010799  -0.013037  -0.002096   0.051554  -0.054731
   48  H  5  S    0.027588   0.075429   0.131521  -0.114723   0.020279
   49  H  5  S   -0.011033   0.017598   0.039811  -0.054648   0.013717
   50  F  6  S    0.017217   0.048242  -0.047425   0.011761   0.003170
   51  F  6  S   -0.035716  -0.113454   0.107071  -0.034374  -0.002945
   52  F  6  X    0.011543   0.096264  -0.115127   0.405303   0.081980
   53  F  6  Y   -0.000963  -0.107916   0.377800   0.138624  -0.089613
   54  F  6  Z   -0.000384  -0.003588   0.011404  -0.029137   0.576282
   55  F  6  S   -0.053592  -0.139075   0.162051  -0.027172  -0.018198
   56  F  6  X    0.004583   0.061522  -0.078577   0.277250   0.054863
   57  F  6  Y    0.001079  -0.068268   0.246658   0.090337  -0.063014
   58  F  6  Z    0.000191  -0.002090   0.005947  -0.022154   0.403164
   59  F  6 XX    0.001991   0.000453   0.001745   0.015780   0.003967
   60  F  6 YY    0.000545   0.003420  -0.018580  -0.014650   0.005585
   61  F  6 ZZ   -0.000067  -0.007369   0.006473  -0.006259  -0.002908
   62  F  6 XY   -0.000402  -0.011027   0.015298  -0.010778  -0.005326
   63  F  6 XZ   -0.000102  -0.000582   0.000462  -0.003405   0.015263
   64  F  6 YZ   -0.000043   0.000696  -0.001937   0.000236  -0.018611
   65  H  7  S    0.004618   0.091253  -0.103336  -0.134088  -0.043210
   66  H  7  S    0.004425   0.007948  -0.027921  -0.070638  -0.026703

                     11         12         13         14         15
                   -0.6961    -0.6293    -0.5740    -0.5691    -0.4888
                     A          A          A          A          A   
    1  C  1  S   -0.046773   0.002423   0.017208  -0.006638  -0.034627
    2  C  1  S    0.095213  -0.010517  -0.030280   0.011243   0.078310
    3  C  1  X    0.120952  -0.092045   0.211809  -0.044468   0.169503
    4  C  1  Y   -0.218273  -0.008791   0.203084  -0.051263   0.040587
    5  C  1  Z    0.039842  -0.004633   0.023393   0.080313  -0.014377
    6  C  1  S    0.138607   0.034889  -0.104853   0.049362   0.123169
    7  C  1  X    0.026683   0.028031   0.030498   0.012862   0.069856
    8  C  1  Y   -0.070728  -0.012509   0.083768  -0.001320  -0.018276
    9  C  1  Z    0.026474  -0.000657   0.011135   0.036245  -0.009621
   10  C  1 XX    0.005513  -0.014724   0.014271  -0.003840   0.002666
   11  C  1 YY   -0.008384   0.018146  -0.023208   0.007626  -0.010049
   12  C  1 ZZ    0.001016  -0.001493   0.001452  -0.001748   0.000950
   13  C  1 XY    0.028512  -0.008168  -0.029731   0.005999   0.004040
   14  C  1 XZ   -0.001510  -0.000968   0.002105   0.014986  -0.000703
   15  C  1 YZ    0.004661   0.001053  -0.001484  -0.003264  -0.000625
   16  C  2  S    0.042637   0.018855  -0.024251   0.008579   0.001735
   17  C  2  S   -0.091345  -0.041366   0.047187  -0.007818   0.006062
   18  C  2  X   -0.252121   0.111791  -0.185545   0.038720  -0.163900
   19  C  2  Y   -0.026798  -0.310301  -0.166988   0.019745   0.111086
   20  C  2  Z    0.017748  -0.024104   0.044696   0.215502  -0.019209
   21  C  2  S   -0.111104  -0.048349   0.126395  -0.066244  -0.022474
   22  C  2  X   -0.055562   0.088681  -0.062089   0.026961  -0.014876
   23  C  2  Y    0.010925  -0.100589  -0.077385  -0.013886   0.079793
   24  C  2  Z    0.011098  -0.006569   0.030518   0.133580  -0.016550
   25  C  2 XX    0.001673   0.004450   0.005055  -0.001629   0.025662
   26  C  2 YY   -0.017551   0.001069  -0.009472   0.002540  -0.030389
   27  C  2 ZZ    0.006528   0.003188   0.002282   0.001469   0.000867
   28  C  2 XY    0.002993  -0.020183  -0.025257   0.004639   0.021855
   29  C  2 XZ   -0.001929  -0.002222   0.000481   0.002871  -0.001264
   30  C  2 YZ   -0.000112  -0.001368   0.004287   0.018286  -0.002889
   31  O  3  S   -0.040905  -0.034759  -0.024526  -0.011352  -0.023707
   32  O  3  S    0.083384   0.082513   0.049865   0.039256   0.079834
   33  O  3  X    0.046114   0.304822   0.099939  -0.042618   0.424146
   34  O  3  Y    0.271651   0.175857   0.278410  -0.038466  -0.226373
   35  O  3  Z    0.033574  -0.043749   0.147228   0.497350  -0.084212
   36  O  3  S    0.176865   0.137275   0.126118   0.033047   0.044752
   37  O  3  X    0.012635   0.190984   0.061652  -0.018561   0.350358
   38  O  3  Y    0.160510   0.110905   0.184148  -0.033046  -0.169314
   39  O  3  Z    0.015925  -0.022851   0.095687   0.356504  -0.048745
   40  O  3 XX    0.002285  -0.014366  -0.002257   0.002263  -0.018490
   41  O  3 YY   -0.019055  -0.002966  -0.012501   0.006946   0.015813
   42  O  3 ZZ   -0.000002   0.006894   0.000286  -0.005569   0.009153
   43  O  3 XY   -0.013575  -0.018878  -0.012592   0.008160   0.006430
   44  O  3 XZ    0.001573  -0.003105  -0.005136  -0.025109  -0.011165
   45  O  3 YZ   -0.006215   0.000169  -0.008629  -0.014118   0.011338
   46  H  4  S    0.048474  -0.003950   0.000347  -0.102074  -0.181829
   47  H  4  S    0.055910   0.026157  -0.012062  -0.102737  -0.229569
   48  H  5  S   -0.103969   0.175200   0.061397  -0.008887  -0.150581
   49  H  5  S   -0.062501   0.124826   0.031572  -0.011304  -0.146597
   50  F  6  S   -0.014859   0.001562  -0.001418  -0.001919  -0.005708
   51  F  6  S    0.024582  -0.009154   0.010835  -0.000882   0.009835
   52  F  6  X   -0.140638   0.351799  -0.218568   0.099234  -0.015463
   53  F  6  Y    0.285540   0.102587  -0.260609   0.093570   0.043126
   54  F  6  Z    0.191154   0.011615  -0.037567  -0.156131  -0.018455
   55  F  6  S    0.076201   0.009960  -0.011225   0.014334   0.035070
   56  F  6  X   -0.093185   0.258211  -0.169647   0.076998  -0.016214
   57  F  6  Y    0.195256   0.072556  -0.198612   0.074662   0.025893
   58  F  6  Z    0.135045   0.007373  -0.026714  -0.121817  -0.016518
   59  F  6 XX   -0.004492   0.007905  -0.002155  -0.000007  -0.001358
   60  F  6 YY   -0.013351  -0.007604   0.010484  -0.006185  -0.002580
   61  F  6 ZZ   -0.000810  -0.003790   0.002502  -0.002116  -0.000318
   62  F  6 XY    0.011195  -0.007099  -0.002499   0.000022  -0.003602
   63  F  6 XZ    0.005456  -0.001448   0.000776  -0.001997  -0.000140
   64  F  6 YZ   -0.007298  -0.000598   0.001778   0.003417   0.001130
   65  H  7  S    0.116431   0.031364  -0.217569   0.054668  -0.046142
   66  H  7  S    0.066614   0.026770  -0.179121   0.055260  -0.068619

                     16         17         18         19         20
                   -0.3495     0.0752     0.2126     0.2670     0.3080
                     A          A          A          A          A   
    1  C  1  S   -0.000678  -0.010256  -0.001031   0.036277   0.112122
    2  C  1  S    0.009103   0.004211   0.003489  -0.036050  -0.134712
    3  C  1  X    0.015864   0.008356   0.005218   0.103516   0.156418
    4  C  1  Y   -0.006463   0.019636  -0.003177   0.247427   0.043831
    5  C  1  Z    0.397883  -0.058237  -0.371215  -0.000964  -0.002476
    6  C  1  S   -0.001070   0.238608  -0.000106  -0.853541  -1.756093
    7  C  1  X   -0.000806  -0.021237   0.021151   0.292096   0.573455
    8  C  1  Y   -0.025887   0.008693  -0.013302   0.617383   0.901008
    9  C  1  Z    0.308088  -0.104449  -0.722107  -0.013232   0.005825
   10  C  1 XX    0.001331  -0.000194  -0.000746   0.001086   0.009418
   11  C  1 YY    0.000303  -0.002697  -0.000204   0.000750   0.013460
   12  C  1 ZZ   -0.000603   0.003403  -0.000035   0.004618  -0.005111
   13  C  1 XY   -0.000362   0.001322  -0.001911   0.018920  -0.018935
   14  C  1 XZ    0.029338  -0.000444   0.026786   0.001171  -0.000835
   15  C  1 YZ   -0.008074  -0.000166   0.008154  -0.000421   0.000977
   16  C  2  S    0.000769   0.000357   0.006544   0.047011  -0.064539
   17  C  2  S    0.003848  -0.006640   0.001931  -0.055596   0.115567
   18  C  2  X   -0.008747   0.019750  -0.011754  -0.123066   0.009669
   19  C  2  Y   -0.008191   0.015526  -0.024974   0.225300  -0.127721
   20  C  2  Z    0.317578   0.070667   0.393893   0.015166  -0.000226
   21  C  2  S   -0.010282   0.070931  -0.131804  -0.918306   0.761027
   22  C  2  X    0.010333   0.187656  -0.053083  -0.344983   0.032937
   23  C  2  Y   -0.015505   0.003909  -0.069832   0.718807  -1.234686
   24  C  2  Z    0.250345   0.110843   0.775698   0.035035  -0.026897
   25  C  2 XX    0.003045   0.011068   0.000688   0.004621  -0.008774
   26  C  2 YY   -0.000942  -0.015026   0.004217  -0.000976  -0.005476
   27  C  2 ZZ   -0.000909   0.005053  -0.002799   0.003117  -0.001117
   28  C  2 XY    0.001662   0.001693   0.001489  -0.020827  -0.002564
   29  C  2 XZ   -0.036332   0.011168   0.020229  -0.000398   0.000838
   30  C  2 YZ   -0.014648   0.001548  -0.010633  -0.001176  -0.000774
   31  O  3  S    0.008798   0.052293  -0.010830   0.012029  -0.013566
   32  O  3  S   -0.023184  -0.068052   0.008750  -0.026972  -0.049987
   33  O  3  X    0.041217   0.245073  -0.035199   0.083145   0.024939
   34  O  3  Y   -0.025049  -0.188557   0.008170   0.010790   0.001020
   35  O  3  Z   -0.288271   0.161746  -0.199667  -0.008210   0.009921
   36  O  3  S   -0.041723  -0.468334   0.134565  -0.134451   0.527100
   37  O  3  X    0.030216   0.329605  -0.070730   0.181513  -0.127165
   38  O  3  Y   -0.018703  -0.195643   0.004025  -0.000774  -0.122746
   39  O  3  Z   -0.268671   0.208034  -0.300711  -0.013648   0.000469
   40  O  3 XX   -0.000680   0.009422  -0.003183   0.005078  -0.022796
   41  O  3 YY    0.000865   0.028570  -0.004371  -0.005493  -0.015002
   42  O  3 ZZ    0.003723   0.020894  -0.005270  -0.001517  -0.025286
   43  O  3 XY   -0.002905  -0.009057   0.000584  -0.001805   0.011831
   44  O  3 XZ    0.006825  -0.003683   0.000884  -0.000775   0.001236
   45  O  3 YZ    0.000077  -0.010602  -0.012819   0.000888  -0.000791
   46  H  4  S    0.062406   0.253583  -0.010206   0.001061   0.021666
   47  H  4  S    0.120692   0.912764  -0.129347  -0.134291   0.089287
   48  H  5  S   -0.006151  -0.044463   0.008367   0.024163  -0.032450
   49  H  5  S   -0.015714  -0.169741   0.044722   1.571201  -1.529777
   50  F  6  S    0.001735   0.021977  -0.005328   0.015847  -0.026333
   51  F  6  S   -0.006519  -0.033313   0.007866  -0.039377   0.089338
   52  F  6  X   -0.015244  -0.080342   0.013488  -0.079127   0.077099
   53  F  6  Y   -0.006645  -0.035695  -0.003407   0.020568  -0.147429
   54  F  6  Z   -0.192047   0.072694   0.134446   0.001683   0.000260
   55  F  6  S    0.000871  -0.167067   0.047954  -0.122980   0.121238
   56  F  6  X   -0.011165  -0.105062   0.021890  -0.137563   0.041985
   57  F  6  Y   -0.007884  -0.012930  -0.015904   0.011814  -0.228826
   58  F  6  Z   -0.185812   0.075733   0.177342   0.002045  -0.001144
   59  F  6 XX   -0.000561   0.004148  -0.001089   0.001892   0.012180
   60  F  6 YY   -0.000344   0.007221  -0.001744  -0.006938   0.014015
   61  F  6 ZZ   -0.000276   0.009366  -0.001834  -0.003583   0.009732
   62  F  6 XY    0.000123   0.006061  -0.001731   0.001406   0.005861
   63  F  6 XZ    0.001011  -0.002632  -0.002337   0.000033  -0.000601
   64  F  6 YZ   -0.002300  -0.002751   0.011955   0.000304  -0.000147
   65  H  7  S   -0.003622  -0.012481  -0.006524   0.010727   0.009814
   66  H  7  S   -0.016369  -0.080889  -0.032313   1.411672   1.973612

                     21         22         23         24         25
                    0.3281     0.4845     0.6149     0.7118     0.7370
                     A          A          A          A          A   
    1  C  1  S   -0.025008   0.015591   0.128261   0.036326  -0.003805
    2  C  1  S    0.003582   0.003157  -0.047069   0.341550   0.081937
    3  C  1  X   -0.125772   0.072557  -0.096269   0.519662   0.009381
    4  C  1  Y    0.202566  -0.131806  -0.208100  -0.233521   0.045771
    5  C  1  Z   -0.020185  -0.025978   0.003963  -0.022135   0.761553
    6  C  1  S    0.321779   1.390250  -3.987453   0.128687   0.001210
    7  C  1  X   -0.642419   1.716000  -3.086244  -0.717720   0.033571
    8  C  1  Y    0.855482  -1.271057  -1.468126   0.350083  -0.037734
    9  C  1  Z   -0.024602  -0.063433  -0.036756   0.025781  -0.759738
   10  C  1 XX    0.009145   0.004287   0.023141   0.096403   0.006060
   11  C  1 YY   -0.006455  -0.004324  -0.004740   0.063938  -0.002153
   12  C  1 ZZ    0.012679  -0.011968  -0.020778  -0.029965   0.003442
   13  C  1 XY    0.017452   0.027032   0.014567  -0.040782   0.012319
   14  C  1 XZ    0.003665   0.002441   0.001563  -0.004115   0.056105
   15  C  1 YZ   -0.000054   0.000366   0.000502   0.003646   0.021752
   16  C  2  S   -0.082130  -0.029520  -0.124807   0.056128  -0.000479
   17  C  2  S    0.062273   0.023476   0.085738   0.303442   0.064637
   18  C  2  X    0.151248   0.069647  -0.186693  -0.506142   0.001866
   19  C  2  Y    0.028419   0.169395   0.220694  -0.269099   0.018415
   20  C  2  Z    0.016586   0.009662   0.022307  -0.020787   0.659210
   21  C  2  S    1.776028  -0.760260   4.326015  -0.429378  -0.097471
   22  C  2  X    0.616889   2.043920  -2.844421   1.071205   0.082753
   23  C  2  Y   -0.046880   1.735854   1.530207   0.152791   0.013444
   24  C  2  Z    0.064752   0.087293   0.077902   0.007934  -0.598744
   25  C  2 XX   -0.000159  -0.001833  -0.012257   0.089800   0.005201
   26  C  2 YY   -0.011827  -0.000210   0.012327   0.057020  -0.002277
   27  C  2 ZZ    0.006317   0.015823   0.019636  -0.037927   0.002289
   28  C  2 XY   -0.036623   0.015306   0.019505   0.036964  -0.013568
   29  C  2 XZ   -0.002055   0.002035   0.001849   0.003831  -0.060581
   30  C  2 YZ   -0.002770  -0.000814  -0.003431   0.007357   0.018956
   31  O  3  S    0.047228   0.079823   0.042656  -0.014939   0.000120
   32  O  3  S   -0.065709  -0.077234  -0.041278   0.118735   0.044308
   33  O  3  X    0.067753  -0.022198   0.119343  -0.160294  -0.017278
   34  O  3  Y    0.231909   0.172866   0.054897  -0.098453   0.054337
   35  O  3  Z   -0.039885   0.006165   0.011724   0.016736   0.059546
   36  O  3  S   -0.650560  -1.600394  -0.809717  -0.251444  -0.054506
   37  O  3  X    0.139475   0.265684   0.643883  -0.166895  -0.010724
   38  O  3  Y    0.524764   0.788141   0.233163   0.035230  -0.002336
   39  O  3  Z   -0.041681   0.013619   0.025544  -0.011761   0.061691
   40  O  3 XX    0.015238   0.019018  -0.010173   0.024923   0.016494
   41  O  3 YY    0.002525   0.004047   0.005932  -0.016813   0.025552
   42  O  3 ZZ    0.017747   0.038342   0.028129   0.027040   0.010241
   43  O  3 XY   -0.005983  -0.024537   0.017296  -0.054561   0.011865
   44  O  3 XZ   -0.003418  -0.000636  -0.003299   0.003959  -0.013325
   45  O  3 YZ    0.001256  -0.003776   0.000114  -0.006631  -0.025048
   46  H  4  S   -0.064738  -0.001233  -0.070893   0.069217  -0.005296
   47  H  4  S   -0.285307  -0.126783   0.146216  -0.017052  -0.087347
   48  H  5  S    0.050282  -0.122372  -0.090480   0.108880   0.022031
   49  H  5  S   -1.056161   0.242588   1.242766  -0.033406  -0.026170
   50  F  6  S    0.063846  -0.064708  -0.031092   0.000269   0.001024
   51  F  6  S   -0.013147   0.044947   0.070946   0.125963   0.023791
   52  F  6  X   -0.066338  -0.011358   0.174698   0.140593  -0.002213
   53  F  6  Y    0.166975  -0.101086  -0.044099  -0.067745   0.034550
   54  F  6  Z    0.001903  -0.008834   0.001498  -0.000724   0.045301
   55  F  6  S   -0.889111   1.006099   0.384559  -0.399539  -0.013293
   56  F  6  X   -0.187114   0.120332   0.422447   0.057376   0.003597
   57  F  6  Y    0.358873  -0.377252  -0.087676   0.068047  -0.006876
   58  F  6  Z    0.013324  -0.008298   0.000934  -0.002598   0.086420
   59  F  6 XX    0.047535  -0.024497   0.018929   0.041613   0.014555
   60  F  6 YY    0.036997  -0.014327   0.005964   0.004659   0.021538
   61  F  6 ZZ    0.050985  -0.036525  -0.002219   0.050377   0.007132
   62  F  6 XY    0.008258  -0.016751   0.014596   0.047399  -0.013662
   63  F  6 XZ    0.001831   0.000501   0.000512  -0.000132   0.021001
   64  F  6 YZ    0.001877   0.003475  -0.000491  -0.001862  -0.032272
   65  H  7  S    0.023521   0.134408   0.101400   0.111260   0.019994
   66  H  7  S    0.298273  -0.180706  -1.319095   0.035166  -0.002259

                     26         27         28         29         30
                    0.7869     0.8467     0.8525     0.8929     0.9699
                     A          A          A          A          A   
    1  C  1  S   -0.006493  -0.018620  -0.000863   0.009460  -0.036186
    2  C  1  S   -0.843434   0.077830  -0.038526   0.418471   0.108952
    3  C  1  X    0.175153   0.264735   0.035259  -0.353087   0.297699
    4  C  1  Y   -0.298901   0.278444  -0.084429   0.645541   0.147555
    5  C  1  Z    0.080698  -0.036629   0.723795   0.076776  -0.012713
    6  C  1  S    1.427833   0.808635   0.194674  -1.549006   0.161439
    7  C  1  X   -0.365579  -0.339511   0.127149  -0.781001  -0.795302
    8  C  1  Y    0.243034  -0.398782   0.184455  -1.511611  -0.527074
    9  C  1  Z   -0.100241   0.073851  -1.175717  -0.146359  -0.027169
   10  C  1 XX   -0.078282  -0.016175  -0.006085   0.074718  -0.056429
   11  C  1 YY   -0.051788  -0.011644   0.010245  -0.102049  -0.050233
   12  C  1 ZZ   -0.006646   0.030552  -0.005206   0.034133   0.044674
   13  C  1 XY   -0.127293  -0.023760  -0.000771   0.030440  -0.021879
   14  C  1 XZ    0.007036  -0.011256  -0.037378  -0.004868   0.001296
   15  C  1 YZ    0.007607  -0.013175   0.018720  -0.004811   0.002800
   16  C  2  S   -0.008707   0.022297   0.004434  -0.028276  -0.013338
   17  C  2  S   -0.740624   0.270066   0.075239  -0.466610   0.322621
   18  C  2  X   -0.080059   0.041412   0.045351  -0.454026   0.292058
   19  C  2  Y   -0.188576   0.507878   0.059677  -0.351152   0.237981
   20  C  2  Z    0.054383  -0.028433  -0.827775  -0.120899  -0.042669
   21  C  2  S    1.191194  -0.326965  -0.331337   2.284393  -0.049335
   22  C  2  X    0.439685   0.696728   0.062165  -0.239803  -0.251547
   23  C  2  Y    0.190872  -1.047134  -0.132046   0.984400  -0.142730
   24  C  2  Z   -0.053322   0.058522   1.276469   0.216486   0.060352
   25  C  2 XX   -0.073268   0.057498   0.010569  -0.081446   0.127265
   26  C  2 YY   -0.071312  -0.014017   0.006500   0.021105  -0.101529
   27  C  2 ZZ    0.000645   0.016489  -0.000054  -0.004998   0.024304
   28  C  2 XY    0.103152   0.015955  -0.005185   0.059147   0.010203
   29  C  2 XZ   -0.009400   0.001430  -0.029778   0.006680   0.014514
   30  C  2 YZ    0.002010  -0.009828  -0.027289   0.000311   0.001677
   31  O  3  S    0.003204   0.014175   0.000429  -0.004266   0.006507
   32  O  3  S   -0.015902   0.089634  -0.005439   0.033322  -0.174170
   33  O  3  X   -0.140579  -0.252497   0.020471  -0.217418   0.154391
   34  O  3  Y   -0.029233   0.114688   0.011117  -0.163378   0.089307
   35  O  3  Z   -0.048607  -0.019710  -0.069502   0.037962   0.195724
   36  O  3  S   -0.356703  -0.146810   0.059275  -0.642130   0.520662
   37  O  3  X    0.062210   0.097009  -0.023103   0.228773  -0.232872
   38  O  3  Y    0.160319   0.063319  -0.004562   0.159034   0.111437
   39  O  3  Z    0.017078   0.075870  -0.124952  -0.051806  -0.224530
   40  O  3 XX   -0.008897  -0.015039   0.002576  -0.034985  -0.054092
   41  O  3 YY   -0.055777   0.101094   0.003413  -0.080470   0.060883
   42  O  3 ZZ    0.032923   0.014759  -0.004328   0.060906  -0.078448
   43  O  3 XY   -0.052849   0.067994   0.002825  -0.075041  -0.015784
   44  O  3 XZ   -0.006754  -0.038696   0.043624   0.012615   0.069164
   45  O  3 YZ   -0.001505   0.026043   0.040111  -0.011836  -0.038483
   46  H  4  S    0.011076  -0.716496  -0.007352   0.073255   0.855631
   47  H  4  S   -0.292908   1.149396   0.020488   0.013027  -0.834798
   48  H  5  S   -0.375834  -0.215261   0.031682  -0.206458  -0.274920
   49  H  5  S   -0.050835  -0.482307  -0.012563   0.113700   0.320772
   50  F  6  S    0.007178   0.012048  -0.001141   0.003020  -0.001506
   51  F  6  S    0.023219  -0.040888  -0.001103  -0.038627   0.104998
   52  F  6  X    0.145096   0.100627  -0.000451  -0.052005   0.094645
   53  F  6  Y   -0.112731   0.017076  -0.032784   0.268096   0.152098
   54  F  6  Z   -0.013481   0.034452   0.040503   0.010221  -0.013730
   55  F  6  S   -0.425595  -0.075646  -0.028571   0.491009  -0.137951
   56  F  6  X   -0.059441  -0.048705  -0.015409   0.162257   0.112325
   57  F  6  Y    0.114015   0.067557  -0.003289  -0.032636   0.020071
   58  F  6  Z    0.016061   0.005662   0.111343   0.007870  -0.016285
   59  F  6 XX   -0.010516  -0.031390  -0.004949   0.019107   0.048392
   60  F  6 YY   -0.058209   0.010776  -0.011060   0.107705   0.048865
   61  F  6 ZZ    0.058291   0.006811  -0.000591  -0.055174   0.035430
   62  F  6 XY    0.071720  -0.009631   0.007519  -0.092009  -0.018968
   63  F  6 XZ    0.009153  -0.005038   0.043220   0.001227  -0.002329
   64  F  6 YZ   -0.004732  -0.004770  -0.035722   0.002495   0.003603
   65  H  7  S   -0.373721  -0.285386   0.026242  -0.167779  -0.360072
   66  H  7  S   -0.079506  -0.270758   0.054636  -0.438707  -0.357256

                     31         32         33         34         35
                    1.0628     1.1109     1.1399     1.2476     1.2713
                     A          A          A          A          A   
    1  C  1  S   -0.014994  -0.011476   0.018037   0.013969  -0.007282
    2  C  1  S   -0.117202   0.702803   0.115878   0.303829  -1.234013
    3  C  1  X    0.581818  -0.361128   0.046581   0.133835  -0.219682
    4  C  1  Y    0.414766  -0.463661   0.153322   0.135887   0.402761
    5  C  1  Z    0.016067   0.014151  -0.013280  -0.000309   0.008710
    6  C  1  S   -1.004823  -1.549432  -0.645792  -0.830263   5.101404
    7  C  1  X   -1.874312   0.718507  -0.394677  -0.565704   1.838898
    8  C  1  Y   -2.269266   0.973157  -0.614543   0.001170  -0.053874
    9  C  1  Z   -0.047817   0.004156   0.015115   0.122669   0.022040
   10  C  1 XX   -0.208704   0.074440   0.006096   0.006939   0.084919
   11  C  1 YY    0.026596  -0.021750   0.024282   0.055271  -0.044113
   12  C  1 ZZ    0.021784   0.075650  -0.008244  -0.024750  -0.137138
   13  C  1 XY    0.033691  -0.120844  -0.026479   0.025871  -0.030650
   14  C  1 XZ    0.005039   0.004424  -0.007717  -0.015806  -0.005621
   15  C  1 YZ    0.001943   0.010737  -0.012629   0.039687   0.020135
   16  C  2  S    0.036256   0.005589  -0.038426  -0.013520   0.017471
   17  C  2  S   -0.121751   0.645341   0.379684  -0.344439   1.230358
   18  C  2  X    0.582166   0.266039   0.262624  -0.031300  -0.275497
   19  C  2  Y   -0.485700  -0.306369  -0.615736   0.159817  -0.114627
   20  C  2  Z    0.008337   0.038988  -0.038445   0.082161   0.023230
   21  C  2  S    1.494413  -1.354287  -0.548520   1.408539  -5.043837
   22  C  2  X   -1.962281  -0.536197  -0.796918   0.102095   1.937610
   23  C  2  Y    2.674429   0.606507   1.291124  -0.818027  -0.441180
   24  C  2  Z    0.044718  -0.100240   0.090710  -0.442436  -0.152546
   25  C  2 XX    0.167333   0.055412   0.042618   0.048904  -0.060380
   26  C  2 YY    0.072491   0.066457  -0.157371  -0.114032   0.144266
   27  C  2 ZZ   -0.066568   0.041639   0.112903  -0.009697   0.053400
   28  C  2 XY    0.043252   0.147988   0.002215   0.026633  -0.006794
   29  C  2 XZ   -0.004619  -0.009999   0.002712  -0.010719   0.000680
   30  C  2 YZ    0.009998   0.011846  -0.023892   0.031032   0.024532
   31  O  3  S    0.007884  -0.001331   0.016759  -0.004255  -0.022593
   32  O  3  S   -0.125924  -0.344485   0.559476  -0.010131  -0.309020
   33  O  3  X   -0.187461  -0.175310   0.164025   0.339690  -0.145023
   34  O  3  Y   -0.294540  -0.195394   0.437365  -0.136341  -0.051499
   35  O  3  Z   -0.066298  -0.169574   0.039279  -0.776921  -0.168188
   36  O  3  S   -0.595543   0.621272  -1.252663   0.139953   1.212673
   37  O  3  X    0.636874   0.356625  -0.113002  -0.577154  -0.177598
   38  O  3  Y    0.431163   0.271675  -0.602737   0.214175  -0.085410
   39  O  3  Z    0.089240   0.187677  -0.033767   0.996384   0.194143
   40  O  3 XX   -0.135190  -0.148404   0.126455  -0.063900  -0.025197
   41  O  3 YY   -0.069911  -0.104505   0.263278   0.061183  -0.092167
   42  O  3 ZZ   -0.013468  -0.132904   0.218062  -0.003241  -0.202479
   43  O  3 XY   -0.045002  -0.010932  -0.020690  -0.041977   0.008555
   44  O  3 XZ   -0.018554  -0.018612  -0.015887   0.016066   0.021471
   45  O  3 YZ    0.008750   0.016268   0.011407   0.016382  -0.006383
   46  H  4  S   -0.167789  -0.091723  -0.220600   0.089975   0.230360
   47  H  4  S    0.051648  -0.105205   0.365247   0.019335  -0.234995
   48  H  5  S    0.191907  -0.311930  -0.632752  -0.202498  -0.201144
   49  H  5  S    1.580198   1.144581   1.597431  -0.557852   0.196119
   50  F  6  S   -0.009016   0.000759  -0.004416  -0.010030  -0.011645
   51  F  6  S    0.062044  -0.158643  -0.145873  -0.126908  -0.339040
   52  F  6  X   -0.066582  -0.002960  -0.049976   0.005914   0.040462
   53  F  6  Y    0.051265   0.010301  -0.058738  -0.030463  -0.161982
   54  F  6  Z   -0.015063  -0.025139   0.033128  -0.072107  -0.036719
   55  F  6  S    0.320438   0.251973   0.389143   0.293619   0.370087
   56  F  6  X    0.260197  -0.129274   0.023470   0.060297  -0.225683
   57  F  6  Y   -0.102731  -0.006943   0.048293   0.065185   0.315253
   58  F  6  Z    0.013239   0.023309  -0.021942   0.050639   0.027593
   59  F  6 XX    0.130741  -0.122063  -0.038490  -0.036459  -0.226123
   60  F  6 YY   -0.028747  -0.012335  -0.066453  -0.060355  -0.180703
   61  F  6 ZZ    0.014017  -0.069671  -0.075359  -0.100911  -0.097547
   62  F  6 XY   -0.042772   0.022528  -0.001867  -0.011813   0.013480
   63  F  6 XZ    0.002900   0.008739  -0.008298   0.005448   0.004235
   64  F  6 YZ    0.001426   0.003468  -0.004052  -0.011400  -0.005093
   65  H  7  S    0.143822  -0.489140   0.174686   0.149473   0.320819
   66  H  7  S   -1.711130   1.576586  -0.396333  -0.178699  -0.696991

                     36         37         38         39         40
                    1.3024     1.4146     1.4775     1.5299     1.6401
                     A          A          A          A          A   
    1  C  1  S   -0.041832  -0.005430   0.002971   0.001083  -0.002070
    2  C  1  S   -0.569381  -0.340078   0.079757   0.031426   0.071995
    3  C  1  X   -0.072070  -0.083490  -0.031152   0.012355   0.090428
    4  C  1  Y   -0.060276   0.024474   0.203853  -0.020466  -0.009199
    5  C  1  Z   -0.019129   0.025374   0.008536   0.060055  -0.076748
    6  C  1  S    2.585744   2.064651   0.421216  -0.235740  -0.598781
    7  C  1  X    0.635097   0.874449  -0.036099  -0.128408  -0.503674
    8  C  1  Y   -1.227996   0.280093  -1.882718   0.081984   0.226956
    9  C  1  Z    0.055453  -0.146188  -0.121777  -0.359829  -0.118381
   10  C  1 XX    0.014811   0.027033   0.025970   0.002649   0.057451
   11  C  1 YY   -0.262091  -0.068123   0.112678  -0.023701  -0.014327
   12  C  1 ZZ    0.078264  -0.000456  -0.047328   0.016872  -0.075311
   13  C  1 XY    0.010647   0.011704  -0.166257   0.021685   0.065377
   14  C  1 XZ   -0.013965   0.060189   0.037462  -0.169203   0.418994
   15  C  1 YZ   -0.011191   0.010937   0.040995   0.215431   0.038405
   16  C  2  S    0.025968   0.013303   0.006189  -0.001421  -0.010052
   17  C  2  S    0.585883   0.235139   0.033512  -0.020693  -0.040810
   18  C  2  X   -0.145071  -0.149917  -0.025147   0.008891  -0.020134
   19  C  2  Y   -0.142773  -0.043912  -0.113640   0.010695   0.027751
   20  C  2  Z    0.011890  -0.023022  -0.006165   0.004018  -0.085342
   21  C  2  S   -2.419647  -1.094426  -0.572700   0.169637  -0.166718
   22  C  2  X    0.942629   1.733107   0.023048  -0.150352  -0.624285
   23  C  2  Y    1.479461  -0.205205   1.668349  -0.106964  -1.198844
   24  C  2  Z   -0.086442   0.191071   0.100455   0.217394   0.014636
   25  C  2 XX   -0.003629   0.028313   0.004626   0.001676   0.039831
   26  C  2 YY    0.067297  -0.010150   0.021662  -0.019094  -0.041292
   27  C  2 ZZ    0.010157   0.036683  -0.035604   0.009778  -0.058445
   28  C  2 XY   -0.087204   0.115219  -0.098012  -0.012782  -0.060605
   29  C  2 XZ   -0.000081  -0.046173  -0.040944   0.206718  -0.408027
   30  C  2 YZ   -0.003623   0.011219  -0.002090   0.129978  -0.057719
   31  O  3  S    0.021399   0.012753   0.000403  -0.000181  -0.048748
   32  O  3  S    0.280689   0.218182  -0.228772   0.041155  -0.646325
   33  O  3  X    0.205702   0.509597   0.355114  -0.050409   0.012889
   34  O  3  Y    0.143338  -0.619701   0.074542   0.052210   0.201429
   35  O  3  Z   -0.252617   0.355676   0.102518   0.053363   0.043036
   36  O  3  S   -1.044110  -0.648986  -0.129218  -0.038969   2.089990
   37  O  3  X   -0.134817  -0.793852  -0.360324   0.079252  -0.341327
   38  O  3  Y   -0.157448   1.098078  -0.091028  -0.102312  -0.738713
   39  O  3  Z    0.369909  -0.480230  -0.130512  -0.171829   0.010744
   40  O  3 XX    0.133400  -0.045817  -0.077023   0.006500  -0.176693
   41  O  3 YY    0.069869   0.165614  -0.127094   0.024045  -0.219496
   42  O  3 ZZ    0.104612   0.046255   0.044105  -0.002515  -0.178116
   43  O  3 XY    0.013407  -0.014379  -0.006322   0.007017  -0.075241
   44  O  3 XZ   -0.000578  -0.097070  -0.031517  -0.049506   0.020885
   45  O  3 YZ    0.015230   0.041488   0.025054  -0.144423   0.224667
   46  H  4  S   -0.159443  -0.320642  -0.149157  -0.072022  -0.082762
   47  H  4  S    0.361466  -0.100093  -0.029137   0.158351   0.139282
   48  H  5  S    0.455652  -0.221624   0.472012  -0.015297  -0.111920
   49  H  5  S    0.514245  -0.255683   0.508392  -0.015528  -0.291409
   50  F  6  S    0.031623   0.015066  -0.068288   0.006381  -0.002289
   51  F  6  S    0.705637   0.142642  -0.836941   0.085718  -0.024585
   52  F  6  X   -0.154420  -0.107053   0.380111  -0.067554  -0.287073
   53  F  6  Y    0.255594   0.029389  -0.351431   0.030338   0.023955
   54  F  6  Z    0.015109  -0.043534  -0.107437  -0.815696  -0.293685
   55  F  6  S   -1.165560  -0.455260   2.247427  -0.200137  -0.006765
   56  F  6  X    0.276901   0.048354  -0.323411   0.082547   0.438245
   57  F  6  Y   -0.333205  -0.009940   0.453493  -0.045641  -0.042145
   58  F  6  Z   -0.022286   0.075788   0.132204   0.934410   0.440022
   59  F  6 XX    0.267789   0.050760  -0.400380   0.036488  -0.034381
   60  F  6 YY    0.414217   0.076238  -0.353452   0.054251   0.019731
   61  F  6 ZZ    0.343598   0.105468  -0.506117   0.034359  -0.004922
   62  F  6 XY    0.032119   0.009525  -0.021115   0.010202   0.074062
   63  F  6 XZ   -0.006385   0.024804   0.020812   0.050064  -0.014766
   64  F  6 YZ   -0.010163   0.034630   0.022840  -0.076454   0.219128
   65  H  7  S   -0.627769   0.049728  -0.472859   0.013858   0.023353
   66  H  7  S   -0.352121   0.077596  -0.644268   0.022924  -0.093838

                     41         42         43         44         45
                    1.6754     1.7011     1.7192     1.8492     1.9959
                     A          A          A          A          A   
    1  C  1  S   -0.006679   0.008126   0.000042  -0.001074   0.024721
    2  C  1  S   -0.009153   0.150441   0.028525  -0.006463   0.087362
    3  C  1  X    0.056233   0.127569   0.073121  -0.006944   0.035824
    4  C  1  Y   -0.066005   0.112098   0.012688  -0.000085   0.025114
    5  C  1  Z    0.005753  -0.040824   0.138958  -0.163853  -0.010588
    6  C  1  S   -0.095687  -1.031129  -0.327754   0.032626  -0.243246
    7  C  1  X    0.011783  -1.486118  -0.572063   0.072332   0.070451
    8  C  1  Y    0.480350  -0.870691  -0.121879   0.043287   0.972382
    9  C  1  Z    0.107914   0.074630  -0.108133   0.091340   0.029761
   10  C  1 XX    0.057847   0.055008   0.055690  -0.000365  -0.092654
   11  C  1 YY    0.021706  -0.096783  -0.004551  -0.011117  -0.219882
   12  C  1 ZZ   -0.107276   0.046193  -0.058661   0.006560   0.379662
   13  C  1 XY    0.139045  -0.110705   0.011195   0.017547  -0.116414
   14  C  1 XZ   -0.147352   0.022342  -0.277971  -0.071152   0.014424
   15  C  1 YZ    0.152605   0.178744  -0.412324   0.474769   0.001681
   16  C  2  S   -0.008349  -0.007519  -0.005504  -0.000592   0.021950
   17  C  2  S    0.042269  -0.255311  -0.085444   0.003088   0.164557
   18  C  2  X   -0.063425   0.062622  -0.017671  -0.007528  -0.067504
   19  C  2  Y   -0.060143   0.093611  -0.000278  -0.009884   0.065366
   20  C  2  Z   -0.008496  -0.028669   0.151755   0.148185  -0.001411
   21  C  2  S   -1.422928   2.321310   0.238766  -0.055783  -1.059975
   22  C  2  X   -0.419511  -0.678118  -0.360715   0.070418  -0.461590
   23  C  2  Y   -1.780801   0.901412  -0.475604  -0.080691  -0.892229
   24  C  2  Z   -0.056901   0.013902  -0.056007  -0.054902  -0.035454
   25  C  2 XX    0.068644   0.001567   0.041719   0.001280  -0.035366
   26  C  2 YY   -0.081630  -0.036369  -0.011616   0.042374  -0.266999
   27  C  2 ZZ   -0.052412   0.021739  -0.059095  -0.044403   0.362769
   28  C  2 XY   -0.144189   0.053499  -0.038729   0.009469   0.076750
   29  C  2 XZ    0.112228  -0.027654   0.279525  -0.023611  -0.016698
   30  C  2 YZ    0.245018   0.206441  -0.457862  -0.408210  -0.034919
   31  O  3  S   -0.081226   0.023827  -0.028195  -0.001016  -0.022644
   32  O  3  S   -1.212771   0.346019  -0.469712  -0.009069  -0.451522
   33  O  3  X    0.211801  -0.115031   0.092896   0.010289  -0.001594
   34  O  3  Y    0.179483  -0.030902   0.015830  -0.008688   0.050724
   35  O  3  Z    0.080326  -0.001382   0.063847   0.066185  -0.004131
   36  O  3  S    3.651147  -1.214524   1.279150   0.039782   1.523142
   37  O  3  X   -0.895244   0.407609  -0.340654  -0.029064  -0.237157
   38  O  3  Y   -0.976032   0.371819  -0.204996   0.009521  -0.511830
   39  O  3  Z   -0.258319  -0.042951  -0.059716   0.018222  -0.003267
   40  O  3 XX   -0.353834   0.066396  -0.170828  -0.005327  -0.393868
   41  O  3 YY   -0.338825   0.096464  -0.121221  -0.024120  -0.148992
   42  O  3 ZZ   -0.329313   0.115896  -0.086134   0.017288   0.305174
   43  O  3 XY   -0.139886   0.077065  -0.059925  -0.014194  -0.001585
   44  O  3 XZ   -0.225558  -0.063503   0.177810   0.278506  -0.000382
   45  O  3 YZ   -0.127824  -0.084389   0.064792   0.313578  -0.012995
   46  H  4  S   -0.266852   0.219370  -0.058211  -0.032607  -0.068207
   47  H  4  S    0.022345  -0.287199  -0.209796   0.020580   0.112323
   48  H  5  S   -0.169343   0.133138  -0.035990  -0.033348   0.236028
   49  H  5  S   -0.388581   0.181546  -0.132570  -0.040576  -0.034709
   50  F  6  S   -0.014544   0.003376  -0.007398  -0.001593   0.030310
   51  F  6  S   -0.203857   0.064354  -0.122661  -0.040124   0.483592
   52  F  6  X   -0.156474  -0.517532  -0.317979  -0.007302   0.120212
   53  F  6  Y    0.146945  -0.543705  -0.181283   0.034321  -0.085889
   54  F  6  Z    0.267361   0.150957  -0.072427   0.045067  -0.015338
   55  F  6  S    0.353864  -0.064003   0.229293   0.074532  -1.211761
   56  F  6  X    0.265746   0.809865   0.503441   0.004162  -0.244152
   57  F  6  Y   -0.241091   0.825026   0.270325  -0.053551   0.151350
   58  F  6  Z   -0.394927  -0.236099   0.136905  -0.170841   0.024447
   59  F  6 XX   -0.067998  -0.141993  -0.131201   0.002399  -0.231336
   60  F  6 YY   -0.099949   0.249329   0.039013  -0.016182   0.112473
   61  F  6 ZZ   -0.080769  -0.038517  -0.058273  -0.027204   0.678599
   62  F  6 XY    0.077095   0.047451   0.070119  -0.003627  -0.315476
   63  F  6 XZ    0.108340   0.107788  -0.181537   0.344426   0.007362
   64  F  6 YZ   -0.145034  -0.056554   0.020942  -0.345620  -0.025071
   65  H  7  S   -0.004910  -0.106295  -0.053112   0.009745   0.404022
   66  H  7  S    0.071953  -0.609740  -0.220165   0.030308   0.365450

                     46         47         48         49         50
                    2.0527     2.0846     2.0905     2.1826     2.1870
                     A          A          A          A          A   
    1  C  1  S   -0.005593   0.001780  -0.003319  -0.006288   0.004780
    2  C  1  S   -0.046428  -0.206899  -0.119503   0.240732   0.282393
    3  C  1  X   -0.013506  -0.133776  -0.055258   0.258001   0.226518
    4  C  1  Y   -0.011092  -0.001326   0.028708   0.131528   0.041200
    5  C  1  Z    0.009550   0.021719  -0.036510   0.040609  -0.031913
    6  C  1  S    0.198141  -0.307698  -0.096762  -0.486597  -0.678552
    7  C  1  X    0.701325   0.686029   0.718781   0.393445   0.266957
    8  C  1  Y   -0.897419   0.085199  -0.473635  -0.593675  -0.522834
    9  C  1  Z    0.066320   0.072087  -0.167020  -0.049147  -0.001418
   10  C  1 XX    0.032097   0.241614   0.151512   0.112540   0.098459
   11  C  1 YY    0.026589  -0.382974  -0.210694  -0.128400  -0.172458
   12  C  1 ZZ   -0.034201   0.086465   0.035214  -0.029578   0.076253
   13  C  1 XY    0.095218   0.081769   0.061648  -0.159099   0.043828
   14  C  1 XZ    0.117544   0.073458  -0.136333  -0.136714   0.122302
   15  C  1 YZ    0.019549  -0.023437   0.003886  -0.093433   0.073654
   16  C  2  S    0.008238   0.003090   0.003152  -0.006183   0.001964
   17  C  2  S    0.200720  -0.217841  -0.039041  -0.240790  -0.252677
   18  C  2  X   -0.095570   0.153429   0.044483   0.237852   0.267606
   19  C  2  Y    0.003238   0.003834   0.030132  -0.024332  -0.120404
   20  C  2  Z   -0.018976   0.000387   0.010480   0.038396  -0.042542
   21  C  2  S   -0.720060  -0.242397  -0.317051   0.445954   0.454515
   22  C  2  X    0.580559  -0.621639  -0.002637   0.292375   0.130274
   23  C  2  Y    0.630001   0.355926   0.618470   0.531925   0.335669
   24  C  2  Z   -0.081338  -0.074436   0.171064   0.020472   0.026791
   25  C  2 XX   -0.086509   0.256052   0.070970  -0.074346  -0.016458
   26  C  2 YY    0.011030  -0.371276  -0.198439   0.156563   0.100338
   27  C  2 ZZ    0.050511   0.069532   0.071346  -0.130688  -0.045725
   28  C  2 XY    0.066491  -0.061737   0.058541   0.006390  -0.262151
   29  C  2 XZ    0.083012   0.110781  -0.206331   0.100519  -0.092087
   30  C  2 YZ    0.017106  -0.061508   0.040436  -0.040814   0.069228
   31  O  3  S    0.002309  -0.000840   0.002738   0.014024   0.009317
   32  O  3  S    0.134108   0.087043   0.196041   0.224030   0.099856
   33  O  3  X   -0.011899  -0.182662  -0.136695   0.057285   0.088359
   34  O  3  Y    0.001870  -0.069245  -0.015399   0.028771  -0.169151
   35  O  3  Z   -0.018809  -0.002658   0.005328  -0.031506   0.029797
   36  O  3  S   -0.479959  -0.090821  -0.500535  -0.844086  -0.460604
   37  O  3  X    0.033080   0.288214   0.257709   0.072733  -0.109010
   38  O  3  Y    0.144690  -0.065084   0.097245   0.212536   0.305523
   39  O  3  Z    0.047687   0.003334  -0.032989   0.061756  -0.045830
   40  O  3 XX   -0.440097  -0.101072  -0.253598   0.284083   0.412931
   41  O  3 YY   -0.027180   0.374890   0.130788  -0.232337  -0.169047
   42  O  3 ZZ    0.499352  -0.172374   0.216006   0.053125  -0.113867
   43  O  3 XY    0.279252  -0.318057   0.056705   0.258329   0.017301
   44  O  3 XZ    0.304978   0.093374  -0.285111  -0.383276   0.411773
   45  O  3 YZ   -0.287841  -0.096257   0.292947   0.286351  -0.311624
   46  H  4  S    0.051450  -0.074137   0.238534   0.158951  -0.191376
   47  H  4  S   -0.070816   0.009041  -0.197593  -0.004124   0.019802
   48  H  5  S    0.163507   0.304574   0.283157  -0.095681  -0.291628
   49  H  5  S    0.083203   0.222901   0.146388   0.032671   0.100485
   50  F  6  S   -0.055947  -0.014780  -0.038479  -0.038894  -0.040831
   51  F  6  S   -1.019627  -0.050175  -0.609701  -0.679259  -0.517380
   52  F  6  X   -0.153266   0.255245   0.052584   0.012222   0.076854
   53  F  6  Y    0.179117  -0.022760   0.091975   0.235553   0.065124
   54  F  6  Z    0.036071   0.023091  -0.035860  -0.010216   0.014582
   55  F  6  S    2.421753   0.332771   1.551822   1.672982   1.440743
   56  F  6  X    0.356938  -0.297659   0.041102   0.074690   0.053193
   57  F  6  Y   -0.492929  -0.171491  -0.349579  -0.457842  -0.314075
   58  F  6  Z   -0.064456  -0.042107   0.045166   0.012135  -0.026430
   59  F  6 XX   -0.195103  -0.152315  -0.207354  -0.636051  -0.632723
   60  F  6 YY   -0.538273   0.277730  -0.105088  -0.114464  -0.025184
   61  F  6 ZZ   -0.313352  -0.187454  -0.308413   0.032729   0.083869
   62  F  6 XY    0.247979   0.240580   0.290576   0.159652   0.153759
   63  F  6 XZ    0.166136   0.294628  -0.465080   0.340014  -0.292275
   64  F  6 YZ    0.162835   0.247465  -0.405141   0.248246  -0.230501
   65  H  7  S   -0.145286   0.258216   0.108298   0.250098   0.112183
   66  H  7  S   -0.095972   0.184241   0.010019  -0.116170  -0.042024

                     51         52         53         54         55
                    2.2518     2.3502     2.3896     2.6087     2.6200
                     A          A          A          A          A   
    1  C  1  S   -0.023912   0.014758   0.036531  -0.030315  -0.050234
    2  C  1  S   -0.227757   0.265210   0.331184  -0.176833  -0.320066
    3  C  1  X   -0.045402  -0.236387   0.198853   0.090461   0.125588
    4  C  1  Y    0.090334   0.013521   0.191128  -0.074341  -0.135829
    5  C  1  Z   -0.004777   0.006754   0.005021   0.089738  -0.096444
    6  C  1  S    0.070550  -2.564504  -0.783877   1.155130   1.857893
    7  C  1  X    0.039530  -1.342569  -0.244459   0.460511   0.727316
    8  C  1  Y    0.246571  -2.452247  -0.715875   0.320330   0.455792
    9  C  1  Z    0.016658  -0.046727  -0.014468   0.298880  -0.185129
   10  C  1 XX    0.105622  -0.130523  -0.269744   0.052866   0.059307
   11  C  1 YY    0.083612   0.175533  -0.065440   0.192942   0.406022
   12  C  1 ZZ   -0.348803  -0.161318   0.499055  -0.326818  -0.606933
   13  C  1 XY   -0.492658   0.166110  -0.302470  -0.116003  -0.198115
   14  C  1 XZ    0.040738   0.004783   0.018493   0.548345  -0.292182
   15  C  1 YZ    0.052515   0.012670  -0.008743   0.334063  -0.242293
   16  C  2  S   -0.029190  -0.025260   0.031156   0.028358   0.049263
   17  C  2  S   -0.338552  -0.236960   0.188849   0.195150   0.337209
   18  C  2  X    0.034696  -0.185579  -0.192342   0.098830   0.159225
   19  C  2  Y    0.048435  -0.074776   0.113548   0.115017   0.195323
   20  C  2  Z   -0.018135  -0.002089  -0.000372  -0.147572   0.071400
   21  C  2  S    0.523511   2.846513  -0.185822  -1.097892  -1.773569
   22  C  2  X   -0.299086  -1.339627   0.056218   0.475308   0.733124
   23  C  2  Y    0.602762   2.455553   0.370895  -0.279928  -0.310895
   24  C  2  Z    0.020432   0.077662  -0.002876  -0.375864   0.165770
   25  C  2 XX    0.105032   0.193759  -0.307610  -0.035937  -0.045296
   26  C  2 YY    0.118005  -0.093755  -0.059472  -0.169655  -0.386386
   27  C  2 ZZ   -0.366692  -0.023767   0.539062   0.275394   0.579119
   28  C  2 XY    0.495552  -0.048028   0.321754  -0.095125  -0.112375
   29  C  2 XZ   -0.004401   0.017735   0.016491   0.447319  -0.339893
   30  C  2 YZ    0.046366  -0.003642  -0.041063  -0.529169   0.147247
   31  O  3  S    0.025548   0.019426   0.006355  -0.008299  -0.006119
   32  O  3  S   -0.141450   0.496258  -0.190113   0.125222   0.215937
   33  O  3  X    0.121830  -0.115995   0.106885  -0.081481  -0.116875
   34  O  3  Y    0.277667  -0.019755   0.065450  -0.107999  -0.204047
   35  O  3  Z    0.035540  -0.020346   0.009654  -0.077957   0.020193
   36  O  3  S   -0.334621  -1.921867   0.152182   0.062143  -0.055802
   37  O  3  X    0.131867   0.648326  -0.163390  -0.006182   0.010005
   38  O  3  Y   -0.078309   0.337434  -0.051205   0.080612   0.210399
   39  O  3  Z   -0.043636   0.053081  -0.007522   0.253908  -0.079992
   40  O  3 XX   -0.164163   0.034503   0.329074   0.079054   0.155598
   41  O  3 YY    0.268996   0.464220  -0.016521  -0.128828  -0.221758
   42  O  3 ZZ   -0.134838  -0.286921  -0.352150   0.076434   0.168527
   43  O  3 XY   -0.003902  -0.271954  -0.204029  -0.018982  -0.154914
   44  O  3 XZ    0.157319  -0.076023   0.014041  -0.408818   0.148556
   45  O  3 YZ   -0.132202   0.074464  -0.032412  -0.267182   0.004743
   46  H  4  S   -0.096442   0.084943  -0.081056   0.086786  -0.044787
   47  H  4  S   -0.045136  -0.034097   0.027947  -0.042499   0.024853
   48  H  5  S    0.344430   0.317401   0.410934   0.080649   0.200700
   49  H  5  S    0.124286   0.830401   0.058411  -0.111413  -0.114303
   50  F  6  S    0.031474  -0.054393  -0.014490   0.013739   0.025787
   51  F  6  S    0.026498  -0.920956  -0.592894  -0.008943  -0.053517
   52  F  6  X   -0.063573  -0.179875  -0.147642  -0.050460  -0.104542
   53  F  6  Y    0.276672  -0.008844   0.095088   0.120573   0.227507
   54  F  6  Z    0.021788   0.001222   0.005729   0.061401  -0.052152
   55  F  6  S   -0.455322   2.574542   1.314165  -0.255326  -0.370962
   56  F  6  X   -0.150600   0.620646   0.324722  -0.065172  -0.088063
   57  F  6  Y   -0.108529  -0.201953  -0.189592  -0.063235  -0.142518
   58  F  6  Z   -0.023006  -0.013317  -0.008717  -0.134178   0.137611
   59  F  6 XX   -0.161594  -0.430273   0.104767  -0.063204  -0.109350
   60  F  6 YY    0.186286  -0.763517  -0.281850   0.145222   0.243849
   61  F  6 ZZ    0.095353   0.331348  -0.261120  -0.047978  -0.080047
   62  F  6 XY   -0.104153  -0.178463   0.255872  -0.033811  -0.086370
   63  F  6 XZ   -0.109217   0.003635  -0.001458  -0.225060   0.212290
   64  F  6 YZ   -0.072703  -0.013041  -0.015579   0.002324  -0.100723
   65  H  7  S    0.317794  -0.532323   0.280045  -0.062099  -0.138312
   66  H  7  S   -0.018695  -0.820214  -0.295648   0.099737   0.148572

                     56         57         58         59         60
                    2.6517     2.7892     2.9908     3.0480     3.1788
                     A          A          A          A          A   
    1  C  1  S   -0.009535   0.028202   0.000848   0.058348   0.015946
    2  C  1  S   -0.077167   0.043700  -0.014606  -0.202029  -0.321612
    3  C  1  X    0.032965   0.240965  -0.013706  -0.533253  -0.256824
    4  C  1  Y   -0.041227  -0.075404  -0.008858  -0.083735  -0.156987
    5  C  1  Z    0.178508  -0.008290   0.015342  -0.000397  -0.007637
    6  C  1  S    0.407059  -0.208804  -0.028258  -2.500509  -0.540166
    7  C  1  X    0.173183   0.120124  -0.016053  -1.281330  -0.250186
    8  C  1  Y    0.136633   0.391368   0.016349  -0.482240   0.250951
    9  C  1  Z    0.171332   0.009903  -0.103525  -0.007745   0.019506
   10  C  1 XX    0.005869  -0.426950  -0.013180  -0.706396  -0.587293
   11  C  1 YY    0.056445   0.570526   0.031375   0.177690   0.248374
   12  C  1 ZZ   -0.085811   0.140658  -0.022347   0.525296   0.249784
   13  C  1 XY   -0.046794   0.143596  -0.042605  -0.617995  -0.053719
   14  C  1 XZ   -0.143368   0.011966   0.707444  -0.016532  -0.013279
   15  C  1 YZ    0.511655   0.005041  -0.481022   0.001838   0.013607
   16  C  2  S    0.011400   0.030178  -0.000661  -0.069512   0.025369
   17  C  2  S    0.066799   0.040924  -0.003134   0.429903  -0.380489
   18  C  2  X    0.032251  -0.165077  -0.023513  -0.315199  -0.851618
   19  C  2  Y    0.035522  -0.089268  -0.007871   0.394098  -0.674638
   20  C  2  Z    0.111756  -0.004931  -0.046759   0.022054  -0.035534
   21  C  2  S   -0.413217  -0.415450   0.012844   3.101740  -0.776291
   22  C  2  X    0.166523   0.018696  -0.016167  -1.181476  -0.584943
   23  C  2  Y   -0.098841   0.110467  -0.032655   0.824278  -1.062176
   24  C  2  Z    0.074149   0.002206   0.096160   0.035929  -0.045039
   25  C  2 XX   -0.007679  -0.468825   0.032681   0.724731   0.634830
   26  C  2 YY   -0.109995   0.590813  -0.059703   0.015139  -0.761471
   27  C  2 ZZ    0.158217   0.143287   0.027165  -0.697510   0.245027
   28  C  2 XY   -0.035457  -0.192892  -0.036379  -0.350486  -0.532386
   29  C  2 XZ    0.389501  -0.007126   0.650645  -0.021610  -0.049580
   30  C  2 YZ    0.391418   0.021345   0.440937   0.022329  -0.064508
   31  O  3  S    0.000050  -0.003069  -0.000082   0.024019  -0.050436
   32  O  3  S    0.012432   0.028600  -0.022436   0.545315  -0.677196
   33  O  3  X   -0.009883  -0.024474   0.004133  -0.089132  -0.061556
[...]
   30  C  2 YZ   -0.015460  -0.008509  -0.004385  -0.001570  -0.001412
   31  O  3  S   -0.000018  -0.000017  -0.094297   0.003028   0.002929
   32  O  3  S    0.000026  -0.000004   0.088825   0.020272   0.056859
   33  O  3  X   -0.014061  -0.008394  -0.188411  -0.044330  -0.039828
   34  O  3  Y   -0.036583  -0.021836   0.093444  -0.051422  -0.004626
   35  O  3  Z   -0.289621  -0.173794  -0.002541   0.008560   0.002516
   36  O  3  S    0.000157   0.000261   1.288313  -0.102451  -0.343919
   37  O  3  X   -0.013680  -0.013029  -0.432211  -0.108155   0.092554
   38  O  3  Y   -0.035597  -0.033773   0.204008  -0.056377   0.103351
   39  O  3  Z   -0.281623  -0.268945  -0.004525   0.012190  -0.017555
   40  O  3 XX    0.000776   0.000182  -0.030820   0.002653   0.018194
   41  O  3 YY   -0.001244  -0.004285  -0.043805   0.018775   0.007095
   42  O  3 ZZ    0.000446   0.004054  -0.050629   0.009169   0.019680
   43  O  3 XY    0.000897  -0.000650  -0.006692  -0.002961  -0.011407
   44  O  3 XZ    0.009248   0.002373  -0.000282   0.000731   0.001546
   45  O  3 YZ   -0.005610  -0.019142  -0.000679  -0.001277   0.002434
   46  H  4  S   -0.000059  -0.000116  -0.083762   0.031162  -0.001444
   47  H  4  S   -0.000054  -0.000488  -1.390281   0.293447  -0.185030
   48  H  5  S    0.000013   0.000003   0.015507  -0.034054   0.031277
   49  H  5  S    0.000017   0.000125   0.200755  -1.640487   1.569953
   50  F  6  S    0.000003   0.000007  -0.040719  -0.013074   0.020361
   51  F  6  S    0.000005   0.000003   0.054328   0.034702  -0.084482
   52  F  6  X   -0.009728   0.006584   0.105723   0.070339  -0.071756
   53  F  6  Y   -0.025589   0.017386  -0.025567  -0.020135   0.132794
   54  F  6  Z   -0.202522   0.137282  -0.001842  -0.000806  -0.013333
   55  F  6  S   -0.000051  -0.000103   0.395719   0.090170  -0.043245
   56  F  6  X   -0.009291   0.008578   0.167989   0.119526  -0.025074
   57  F  6  Y   -0.024411   0.022695  -0.121805  -0.000644   0.195288
   58  F  6  Z   -0.193279   0.179194   0.007316  -0.005623  -0.023474
   59  F  6 XX    0.000099  -0.000206  -0.010633  -0.001508  -0.014423
   60  F  6 YY   -0.000258   0.002248  -0.010453   0.006181  -0.017037
   61  F  6 ZZ    0.000172  -0.002022  -0.015969   0.003877  -0.013222
   62  F  6 XY    0.000089   0.000168  -0.012101  -0.000147  -0.006965
   63  F  6 XZ    0.001143  -0.002627   0.001232   0.000316   0.000955
   64  F  6 YZ   -0.001185   0.010095  -0.000225  -0.000330   0.000912
   65  H  7  S    0.000021   0.000034  -0.009771  -0.013663  -0.012422
   66  H  7  S    0.000064   0.000379  -0.033826  -1.363565  -2.024984

                     21         22         23         24         25
                    0.3462     0.4967     0.6048     0.7038     0.7366
                     A          A          A          A          A   
    1  C  1  S   -0.027653   0.010098  -0.127857  -0.047212   0.000006
    2  C  1  S    0.019263   0.010163   0.079970  -0.377942  -0.000008
    3  C  1  X   -0.151252   0.074335   0.138316  -0.518825  -0.035866
    4  C  1  Y    0.186537  -0.109461   0.229309   0.203838  -0.094440
    5  C  1  Z   -0.016205   0.010328  -0.035637  -0.000864  -0.747120
    6  C  1  S    0.270065   1.649825   3.864934   0.427827   0.000045
    7  C  1  X   -0.749275   1.817315   2.793334   1.084461   0.034888
    8  C  1  Y    0.755647  -1.049698   1.633766  -0.106476   0.091908
    9  C  1  Z   -0.059245   0.045606  -0.340822  -0.038583   0.727503
   10  C  1 XX    0.007423   0.002391  -0.014920  -0.097614  -0.004457
   11  C  1 YY   -0.007356  -0.000728   0.000994  -0.057790  -0.005120
   12  C  1 ZZ    0.012968  -0.010055   0.021860   0.026545   0.009584
   13  C  1 XY    0.018785   0.030856  -0.021240   0.027890  -0.007912
   14  C  1 XZ   -0.002074  -0.004628   0.004766   0.003425  -0.053442
   15  C  1 YZ    0.002082  -0.002916   0.004154   0.011168  -0.022680
   16  C  2  S   -0.072636  -0.029972   0.125924  -0.041479  -0.000006
   17  C  2  S    0.051707   0.034030  -0.064776  -0.353106  -0.000029
   18  C  2  X    0.107776   0.062624   0.151031   0.482626  -0.032265
   19  C  2  Y    0.004556   0.183114  -0.210313   0.255492  -0.084768
   20  C  2  Z   -0.005869  -0.026191   0.019352  -0.055572  -0.670284
   21  C  2  S    1.742150  -0.686450  -4.212364  -0.015552   0.000142
   22  C  2  X    0.500876   2.193122   2.919042  -0.614559   0.029798
   23  C  2  Y   -0.019427   1.843518  -1.223613  -0.325230   0.078202
   24  C  2  Z   -0.022076  -0.338914   0.014769   0.070651   0.617621
   25  C  2 XX    0.002233  -0.000779   0.029283  -0.096777   0.004812
   26  C  2 YY   -0.008778   0.003462  -0.019687  -0.056303  -0.003396
   27  C  2 ZZ    0.003548   0.016743  -0.019276   0.029614  -0.001456
   28  C  2 XY   -0.032992   0.011234  -0.008348  -0.043157   0.006582
   29  C  2 XZ    0.004275  -0.000445  -0.001642   0.012608   0.058008
   30  C  2 YZ    0.003475   0.001421   0.000436   0.014965  -0.015484
   31  O  3  S    0.008472   0.076405  -0.035289   0.005038   0.000001
   32  O  3  S   -0.029651  -0.072182   0.045452  -0.108175   0.000053
   33  O  3  X    0.014780  -0.027463  -0.096399   0.123424  -0.003810
   34  O  3  Y    0.262434   0.188876  -0.098108   0.113313  -0.009885
   35  O  3  Z   -0.033772  -0.022597   0.017041  -0.020204  -0.078841
   36  O  3  S   -0.068390  -1.537051   0.667567   0.365092  -0.000056
   37  O  3  X   -0.036739   0.212264  -0.580028   0.037589  -0.002914
   38  O  3  Y    0.673482   0.927547  -0.275972   0.026969  -0.007618
   39  O  3  Z   -0.083139  -0.127635   0.062785  -0.005149  -0.060250
   40  O  3 XX   -0.000358   0.018113   0.015794  -0.025370   0.000988
   41  O  3 YY   -0.008148   0.009638   0.002214   0.009132   0.006498
   42  O  3 ZZ   -0.004103   0.032655  -0.028436  -0.023602  -0.007415
   43  O  3 XY   -0.011687  -0.029867  -0.032219   0.055100   0.002906
   44  O  3 XZ    0.001277   0.004630   0.001602  -0.006929   0.011365
   45  O  3 YZ    0.001195   0.004922  -0.002958  -0.007614   0.028928
   46  H  4  S   -0.042980   0.035528   0.146348  -0.120472   0.000017
   47  H  4  S   -0.967491  -0.473177  -0.124205  -0.037492  -0.000162
   48  H  5  S    0.080866  -0.095983   0.075683  -0.094625  -0.000016
   49  H  5  S   -0.951498   0.067518  -1.147689  -0.126150   0.000002
   50  F  6  S    0.059139  -0.057823   0.035889   0.002670   0.000000
   51  F  6  S    0.001236   0.058277  -0.052322  -0.140038   0.000039
   52  F  6  X   -0.048744  -0.012442  -0.146349  -0.152792  -0.002338
   53  F  6  Y    0.190118  -0.084549   0.055877   0.054599  -0.006193
   54  F  6  Z   -0.021714   0.011267  -0.000012   0.000431  -0.049061
   55  F  6  S   -0.852100   0.861763  -0.499039   0.342619  -0.000060
   56  F  6  X   -0.161304   0.099110  -0.412910  -0.107779  -0.004050
   57  F  6  Y    0.363829  -0.342837   0.116606  -0.052958  -0.010682
   58  F  6  Z   -0.038286   0.038540   0.005109   0.011865  -0.084502
   59  F  6 XX    0.049902  -0.013408  -0.009927  -0.048573  -0.001567
   60  F  6 YY    0.039437  -0.005719   0.004507  -0.017712   0.006884
   61  F  6 ZZ    0.052630  -0.023554   0.013427  -0.051740  -0.005268
   62  F  6 XY    0.003369  -0.018631  -0.012036  -0.040647  -0.000899
   63  F  6 XZ   -0.000267   0.001784   0.002833   0.004954  -0.019178
   64  F  6 YZ    0.001784  -0.001730   0.001929  -0.003033   0.030992
   65  H  7  S    0.020863   0.144925  -0.129303  -0.137251   0.000019
   66  H  7  S    0.163661  -0.144032   1.350874   0.139948  -0.000041

                     26
                    0.7767
                     A   
    1  C  1  S   -0.001660
    2  C  1  S    0.821852
    3  C  1  X   -0.185355
    4  C  1  Y    0.337180
    5  C  1  Z   -0.033787
    6  C  1  S   -1.301185
    7  C  1  X    0.368530
    8  C  1  Y   -0.238511
    9  C  1  Z    0.012488
   10  C  1 XX    0.060035
   11  C  1 YY    0.050729
   12  C  1 ZZ    0.015316
   13  C  1 XY    0.120077
   14  C  1 XZ   -0.017759
   15  C  1 YZ   -0.011224
   16  C  2  S    0.010139
   17  C  2  S    0.761732
   18  C  2  X    0.096048
   19  C  2  Y    0.269360
   20  C  2  Z   -0.038615
   21  C  2  S   -1.293645
   22  C  2  X   -0.447722
   23  C  2  Y   -0.411868
   24  C  2  Z    0.073607
   25  C  2 XX    0.087302
   26  C  2 YY    0.055405
   27  C  2 ZZ    0.002670
   28  C  2 XY   -0.100436
   29  C  2 XZ    0.008003
   30  C  2 YZ   -0.002865
   31  O  3  S   -0.001237
   32  O  3  S    0.000868
   33  O  3  X    0.110088
   34  O  3  Y    0.023138
   35  O  3  Z   -0.008329
   36  O  3  S    0.393140
   37  O  3  X   -0.064292
   38  O  3  Y   -0.183934
   39  O  3  Z    0.026408
   40  O  3 XX   -0.005851
   41  O  3 YY    0.078638
   42  O  3 ZZ   -0.040528
   43  O  3 XY    0.057388
   44  O  3 XZ   -0.009350
   45  O  3 YZ   -0.020571
   46  H  4  S   -0.039564
   47  H  4  S    0.359827
   48  H  5  S    0.332703
   49  H  5  S    0.024585
   50  F  6  S   -0.006721
   51  F  6  S   -0.020180
   52  F  6  X   -0.139284
   53  F  6  Y    0.129902
   54  F  6  Z   -0.009729
   55  F  6  S    0.404603
   56  F  6  X    0.064770
   57  F  6  Y   -0.099631
   58  F  6  Z    0.009477
   59  F  6 XX    0.015907
   60  F  6 YY    0.055984
   61  F  6 ZZ   -0.053889
   62  F  6 XY   -0.076366
   63  F  6 XZ    0.005717
   64  F  6 YZ   -0.012527
   65  H  7  S    0.312065
   66  H  7  S    0.073168

     ----------------------------------------------------------------
     PROPERTY VALUES FOR THE RHF   SELF-CONSISTENT FIELD WAVEFUNCTION
     ----------------------------------------------------------------

          -----------------
          ENERGY COMPONENTS
          -----------------

         WAVEFUNCTION NORMALIZATION =       1.0000000000

                ONE ELECTRON ENERGY =    -580.3505272057
                TWO ELECTRON ENERGY =     210.8557756532
           NUCLEAR REPULSION ENERGY =     117.7613921564
                                      ------------------
                       TOTAL ENERGY =    -251.7333593960

 ELECTRON-ELECTRON POTENTIAL ENERGY =     210.8557756532
  NUCLEUS-ELECTRON POTENTIAL ENERGY =    -831.6564758988
   NUCLEUS-NUCLEUS POTENTIAL ENERGY =     117.7613921564
                                      ------------------
             TOTAL POTENTIAL ENERGY =    -503.0393080892
               TOTAL KINETIC ENERGY =     251.3059486932
                 VIRIAL RATIO (V/T) =       2.0017007584

          ---------------------------------------
          MULLIKEN AND LOWDIN POPULATION ANALYSES
          ---------------------------------------

     ATOMIC MULLIKEN POPULATION IN EACH MOLECULAR ORBITAL

                      1          2          3          4          5

                  2.000000   2.000000   2.000000   2.000000   2.000000

    1             0.000048  -0.000021   1.936233   0.064128   0.153272
    2            -0.000017  -0.000038   0.064023   1.936147   0.019159
    3             0.000000   2.000056   0.000009  -0.000663   0.002466
    4            -0.000002  -0.000002   0.000007   0.000000   0.001600
    5            -0.000000   0.000005   0.000011   0.000421   0.000304
    6             1.999970   0.000000  -0.000707  -0.000037   1.824552
    7             0.000002  -0.000000   0.000424   0.000004  -0.001352

                      6          7          8          9         10

                  2.000000   2.000000   2.000000   2.000000   2.000000

    1             0.023615   0.787650   0.288360   0.489057   0.394077
    2             0.238063   0.751598   0.427702   0.224438   0.247577
    3             1.631183   0.162028   0.553659   0.350520   0.277803
    4             0.095811   0.025095   0.124496   0.088269   0.050103
    5             0.000883   0.055617   0.129312   0.018417   0.046065
    6             0.010186   0.167537   0.403928   0.703579   0.857813
    7             0.000259   0.050474   0.072543   0.125719   0.126563

                     11         12         13         14         15

                  2.000000   2.000000   2.000000   2.000000   2.000000

    1             0.212279   0.032015   0.273442   0.034423   0.303521
    2             0.045164   0.479280   0.209419   0.325585   0.292877
    3             0.031742   0.690546   0.338253   1.537298   0.800535
    4             0.000000   0.004867   0.069731   0.000000   0.071771
    5             0.000000   0.249297   0.164583   0.000000   0.120133
    6             1.710815   0.538912   0.697057   0.102692   0.238491
    7             0.000000   0.005083   0.247515   0.000002   0.172671

                     16

                  2.000000

    1             0.898783
    2             0.627842
    3             0.337967
    4             0.000000
    5             0.000000
    6             0.135408
    7             0.000000

               ----- POPULATIONS IN EACH AO -----
                             MULLIKEN      LOWDIN
              1  C  1  S      1.99645     1.97839
              2  C  1  S      0.65724     0.35036
              3  C  1  X      0.70800     0.62258
              4  C  1  Y      0.58002     0.52148
              5  C  1  Z      0.63774     0.58798
              6  C  1  S      0.44467     0.29795
              7  C  1  X      0.13158     0.29384
              8  C  1  Y      0.16617     0.29870
              9  C  1  Z      0.48315     0.51631
             10  C  1 XX      0.02557     0.19599
             11  C  1 YY      0.02728     0.18095
             12  C  1 ZZ     -0.01795     0.10056
             13  C  1 XY      0.02962     0.05784
             14  C  1 XZ      0.01504     0.02742
             15  C  1 YZ      0.00629     0.01463
             16  C  2  S      1.99648     1.97829
             17  C  2  S      0.66779     0.34977
             18  C  2  X      0.76263     0.66531
             19  C  2  Y      0.64321     0.57692
             20  C  2  Z      0.55021     0.50215
             21  C  2  S      0.42589     0.28866
             22  C  2  X      0.15004     0.32252
             23  C  2  Y      0.18382     0.31613
             24  C  2  Z      0.41686     0.46285
             25  C  2 XX      0.02769     0.19109
             26  C  2 YY      0.02982     0.18132
             27  C  2 ZZ     -0.02054     0.09774
             28  C  2 XY      0.02794     0.05129
             29  C  2 XZ      0.01723     0.03103
             30  C  2 YZ      0.00975     0.02113
             31  O  3  S      1.99526     1.97713
             32  O  3  S      0.90160     0.70137
             33  O  3  X      0.98453     0.93990
             34  O  3  Y      0.81507     0.75155
             35  O  3  Z      1.11859     1.09197
             36  O  3  S      0.89761     0.43647
             37  O  3  X      0.66741     0.68168
             38  O  3  Y      0.48470     0.51802
             39  O  3  Z      0.77295     0.77662
             40  O  3 XX      0.01504     0.17233
             41  O  3 YY      0.03151     0.19331
             42  O  3 ZZ      0.00444     0.16031
             43  O  3 XY      0.01915     0.02598
             44  O  3 XZ      0.00335     0.00447
             45  O  3 YZ      0.00217     0.00619
             46  H  4  S      0.45841     0.42593
             47  H  4  S      0.07334     0.19188
             48  H  5  S      0.53062     0.48818
             49  H  5  S      0.25443     0.33025
             50  F  6  S      1.99536     1.97783
             51  F  6  S      0.97483     0.85338
             52  F  6  X      1.09961     1.06262
             53  F  6  Y      1.01137     0.96385
             54  F  6  Z      1.18614     1.15839
             55  F  6  S      0.87164     0.50478
             56  F  6  X      0.71837     0.72880
             57  F  6  Y      0.65995     0.68554
             58  F  6  Z      0.75622     0.77231
             59  F  6 XX      0.03536     0.16483
             60  F  6 YY      0.04182     0.16900
             61  F  6 ZZ      0.02790     0.16018
             62  F  6 XY      0.00737     0.00875
             63  F  6 XZ      0.00164     0.00407
             64  F  6 YZ      0.00263     0.00669
             65  H  7  S      0.53072     0.48525
             66  H  7  S      0.26919     0.33904

          ----- MULLIKEN ATOMIC OVERLAP POPULATIONS -----
          (OFF-DIAGONAL ELEMENTS NEED TO BE MULTIPLIED BY 2)

             1           2           3           4           5

    1    4.7115167
    2    0.6489028   4.7099557
    3   -0.0481674   0.2707244   8.2564110
    4   -0.0030577  -0.0365567   0.2678139   0.2885737
    5   -0.0396714   0.3896471  -0.0325702   0.0043884   0.4593099
    6    0.2314302  -0.0407312  -0.0029031   0.0100140   0.0015002
    7    0.3899282  -0.0531237   0.0020945   0.0005695   0.0024443

             6           7

    6    9.2213706
    7   -0.0304838   0.4884782

          TOTAL MULLIKEN AND LOWDIN ATOMIC POPULATIONS
       ATOM         MULL.POP.    CHARGE          LOW.POP.     CHARGE
    1 C             5.890881    0.109119         6.044953   -0.044953
    2 C             5.888818    0.111182         6.036208   -0.036208
    3 O             8.713403   -0.713403         8.437293   -0.437293
    4 H             0.531745    0.468255         0.617811    0.382189
    5 H             0.785048    0.214952         0.818431    0.181569
    6 F             9.390197   -0.390197         9.221019   -0.221019
    7 H             0.799907    0.200093         0.824286    0.175714

          -------------------------------
          BOND ORDER AND VALENCE ANALYSIS     BOND ORDER THRESHOLD=0.050
          -------------------------------

                   BOND                       BOND                       BOND
  ATOM PAIR DIST  ORDER      ATOM PAIR DIST  ORDER      ATOM PAIR DIST  ORDER
    1   2  1.311  1.870        1   3  2.362  0.055        1   6  1.345  0.837
    1   7  1.068  0.935        2   3  1.345  0.959        2   5  1.071  0.936
    3   4  0.950  0.740

                       TOTAL       BONDED        FREE
      ATOM            VALENCE     VALENCE     VALENCE
    1 C                 3.679       3.679      -0.000
    2 C                 3.772       3.772      -0.000
    3 O                 1.755       1.755       0.000
    4 H                 0.759       0.759       0.000
    5 H                 0.923       0.923      -0.000
    6 F                 0.899       0.899       0.000
    7 H                 0.924       0.924      -0.000

          ---------------------
          ELECTROSTATIC MOMENTS
          ---------------------

 POINT   1           X           Y           Z (BOHR)    CHARGE
                -0.145212   -0.033839   -0.252879       -0.00 (A.U.)
         DX          DY          DZ         /D/  (DEBYE)
    -0.258497   -1.059908    0.147844    1.100947
 ...... END OF PROPERTY EVALUATION ......
 STEP CPU TIME =     0.01 TOTAL CPU TIME =       23.7 (    0.4 MIN)
 TOTAL WALL CLOCK TIME=       24.9 SECONDS, CPU UTILIZATION IS  94.91%
  $VIB   
          IVIB=   0 IATOM=   0 ICOORD=   0 E=     -251.7333593960
 -1.560847573E-05-3.452896231E-05-1.985549969E-06 8.095779285E-05-7.871692829E-06
  3.321653291E-05-2.170799768E-05-4.584055622E-05-2.467909999E-05-1.507720355E-05
  5.401272093E-05 4.173189057E-06-2.166791688E-05 9.456444201E-06-9.283930922E-07
 -1.806705229E-06 3.157203321E-05 2.208318325E-07-5.089496691E-06-6.799989237E-06
 -1.001751168E-05
 -2.584966252E-01-1.059908144E+00 1.478438291E-01
 ......END OF GEOMETRY SEARCH......
 STEP CPU TIME =     0.00 TOTAL CPU TIME =       23.7 (    0.4 MIN)
 TOTAL WALL CLOCK TIME=       24.9 SECONDS, CPU UTILIZATION IS  94.91%
               998016  WORDS OF DYNAMIC MEMORY USED
 EXECUTION OF GAMESS TERMINATED NORMALLY Fri Nov  3 17:19:47 2017
 DDI: 263640 bytes (0.3 MB / 0 MWords) used by master data server.

 ----------------------------------------
 CPU timing information for all processes
 ========================================
 0: 22.429 + 1.249 = 23.679
 ----------------------------------------
 ddikick.x: exited gracefully.
