
 Distributed Data Interface kickoff program.
 Initiating 1 compute processes on 1 nodes to run the following command:
 /usr/local/gamess-141205/gamess.00.x /home/webmodemo/webmo/guest/344655/input 

          ******************************************************
          *         GAMESS VERSION =  5 DEC 2014 (R1)          *
          *             FROM IOWA STATE UNIVERSITY             *
          * M.W.SCHMIDT, K.K.BALDRIDGE, J.A.BOATZ, S.T.ELBERT, *
          *   M.S.GORDON, J.H.JENSEN, S.KOSEKI, N.MATSUNAGA,   *
          *          K.A.NGUYEN, S.J.SU, T.L.WINDUS,           *
          *       TOGETHER WITH M.DUPUIS, J.A.MONTGOMERY       *
          *         J.COMPUT.CHEM.  14, 1347-1363(1993)        *
          **************** 64 BIT LINUX VERSION ****************

  SINCE 1993, STUDENTS AND POSTDOCS WORKING AT IOWA STATE UNIVERSITY
  AND ALSO IN THEIR VARIOUS JOBS AFTER LEAVING ISU HAVE MADE IMPORTANT
  CONTRIBUTIONS TO THE CODE:
     IVANA ADAMOVIC, CHRISTINE AIKENS, YURI ALEXEEV, POOJA ARORA,
     ANDREY ASADCHEV, ROB BELL, PRADIPTA BANDYOPADHYAY, JONATHAN BENTZ,
     BRETT BODE, KURT BRORSEN, CALEB CARLIN, GALINA CHABAN, WEI CHEN,
     CHEOL HO CHOI, PAUL DAY, ALBERT DEFUSCO, NUWAN DESILVA, TIM DUDLEY,
     DMITRI FEDOROV, GRAHAM FLETCHER, MARK FREITAG, KURT GLAESEMANN,
     DAN KEMP, GRANT MERRILL, NORIYUKI MINEZAWA, JONATHAN MULLIN,
     TAKESHI NAGATA, SEAN NEDD, HEATHER NETZLOFF, BOSILJKA NJEGIC, RYAN OLSON,
     MIKE PAK, SPENCER PRUITT, LUKE ROSKOP, JIM SHOEMAKER, LYUDMILA SLIPCHENKO,
     TONY SMITH, SAROM SOK, JIE SONG, TETSUYA TAKETSUGU, SIMON WEBB,
     PENG XU, SOOHAENG YOO, FEDERICO ZAHARIEV

  ADDITIONAL CODE HAS BEEN PROVIDED BY COLLABORATORS IN OTHER GROUPS:
     IOWA STATE UNIVERSITY:
          JOE IVANIC, AARON WEST, LAIMUTIS BYTAUTAS, KLAUS RUEDENBERG
     UNIVERSITY OF TOKYO: KIMIHIKO HIRAO, TAKAHITO NAKAJIMA,
          TAKAO TSUNEDA, MUNEAKI KAMIYA, SUSUMU YANAGISAWA,
          KIYOSHI YAGI, MAHITO CHIBA, SEIKEN TOKURA, NAOAKI KAWAKAMI
     UNIVERSITY OF AARHUS: FRANK JENSEN
     UNIVERSITY OF IOWA: VISVALDAS KAIRYS, HUI LI
     NATIONAL INST. OF STANDARDS AND TECHNOLOGY: WALT STEVENS, DAVID GARMER
     UNIVERSITY OF PISA: BENEDETTA MENNUCCI, JACOPO TOMASI
     UNIVERSITY OF MEMPHIS: HENRY KURTZ, PRAKASHAN KORAMBATH
     UNIVERSITY OF ALBERTA: TOBY ZENG, MARIUSZ KLOBUKOWSKI
     UNIVERSITY OF NEW ENGLAND: MARK SPACKMAN
     MIE UNIVERSITY: HIROAKI UMEDA
     NAT. INST. OF ADVANCED INDUSTRIAL SCIENCE AND TECHNOLOGY: KAZUO KITAURA
     MICHIGAN STATE UNIVERSITY:
          KAROL KOWALSKI, MARTA WLOCH, JEFFREY GOUR, JESSE LUTZ,
          WEI LI, PIOTR PIECUCH
     UNIVERSITY OF SILESIA: MONIKA MUSIAL, STANISLAW KUCHARSKI
     FACULTES UNIVERSITAIRES NOTRE-DAME DE LA PAIX:
          OLIVIER QUINET, BENOIT CHAMPAGNE
     UNIVERSITY OF CALIFORNIA - SANTA BARBARA: BERNARD KIRTMAN
     INSTITUTE FOR MOLECULAR SCIENCE:
          KAZUYA ISHIMURA, MICHIO KATOUDA, AND SHIGERU NAGASE
     UNIVERSITY OF NOTRE DAME: ANNA POMOGAEVA, DAN CHIPMAN
     KYUSHU UNIVERSITY:
          HARUYUKI NAKANO,
          FENG LONG GU, JACEK KORCHOWIEC, MARCIN MAKOWSKI, AND YURIKO AOKI,
          HIROTOSHI MORI AND EISAKU MIYOSHI
     PENNSYLVANIA STATE UNIVERSITY:
          TZVETELIN IORDANOV, CHET SWALINA, JONATHAN SKONE,
          SHARON HAMMES-SCHIFFER
     WASEDA UNIVERSITY:
          MASATO KOBAYASHI, TOMOKO AKAMA, TSUGUKI TOUMA,
          TAKESHI YOSHIKAWA, YASUHIRO IKABATA, HIROMI NAKAI
     NANJING UNIVERSITY: SHUHUA LI
     UNIVERSITY OF NEBRASKA:
          PEIFENG SU, DEJUN SI, NANDUN THELLAMUREGE, YALI WANG, HUI LI
     UNIVERSITY OF ZURICH: ROBERTO PEVERATI, KIM BALDRIDGE
     N. COPERNICUS UNIVERSITY AND JACKSON STATE UNIVERSITY:
          MARIA BARYSZ
     UNIVERSITY OF COPENHAGEN: CASPER STEINMANN
     TOKYO INSTITUTE OF TECHNOLOGY: HIROYA NAKATA
     NAGOYA UNIVERSITY: YOSHIO NISHIMOTO, STEPHAN IRLE

 EXECUTION OF GAMESS BEGUN Fri Nov  3 17:29:07 2017

            ECHO OF THE FIRST FEW INPUT CARDS -
 INPUT CARD> $CONTRL SCFTYP=RHF RUNTYP=HESSIAN                                              
 INPUT CARD>       ICHARG=0 MULT=1 COORD=ZMTMPC $END                                        
 INPUT CARD> $BASIS GBASIS=N31 NGAUSS=6 NDFUNC=1 $END                                       
 INPUT CARD> $DATA                                                                          
 INPUT CARD>C2H3OF                                                                          
 INPUT CARD>C1 1                                                                            
 INPUT CARD>C 0.0000000 0 0.0000000 0 0.0000000 0 0 0 0                                     
 INPUT CARD>C 1.3114374 1 0.0000000 0 0.0000000 0 1 0 0                                     
 INPUT CARD>O 1.3451359 1 125.55278 1 0.0000000 0 2 1 0                                     
 INPUT CARD>H 0.9495082 1 109.65506 1 0.0629530 1 3 2 1                                     
 INPUT CARD>H 1.0710060 1 121.00313 1 -179.97967 1 2 1 3                                    
 INPUT CARD>F 1.3446583 1 119.95722 1 -0.0201333 1 1 2 3                                    
 INPUT CARD>H 1.0681832 1 125.86952 1 179.97924 1 1 2 3                                     
 INPUT CARD> $END                                                                           
 INPUT CARD>                                                                                
 INPUT CARD>                                                                                
    1000000 WORDS OF MEMORY AVAILABLE

     BASIS OPTIONS
     -------------
     GBASIS=N31          IGAUSS=       6      POLAR=POPN31  
     NDFUNC=       1     NFFUNC=       0     DIFFSP=       F
     NPFUNC=       0      DIFFS=       F     BASNAM=        


     RUN TITLE
     ---------
 C2H3OF                                                                          

 THE POINT GROUP OF THE MOLECULE IS C1      
 THE ORDER OF THE PRINCIPAL AXIS IS     1

 YOUR FULLY SUBSTITUTED Z-MATRIX IS
 C   
 C      1   1.3114374
 O      2   1.3451359  1  125.5528
 H      3   0.9495082  2  109.6551  1    0.0630  0
 H      2   1.0710060  1  121.0031  3 -179.9797  0
 F      1   1.3446583  2  119.9572  3   -0.0201  0
 H      1   1.0681832  2  125.8695  3  179.9792  0

 THE MOMENTS OF INERTIA ARE (AMU-ANGSTROM**2)
 IXX=    24.588   IYY=    80.801   IZZ=   105.389

 ATOM      ATOMIC                      COORDINATES (BOHR)
           CHARGE         X                   Y                   Z
 C           6.0     1.1613636748       -1.2446683690        0.0000783262
 C           6.0    -1.3158588310       -1.1730582642       -0.0001930160
 O           8.0    -2.7335008686        0.9368566830        0.0001580638
 H           1.0    -1.6675150803        2.3801937628       -0.0012209890
 H           1.0    -2.4080347322       -2.8769816389       -0.0001218600
 F           9.0     2.4933228302        0.9192972967       -0.0000103427
 H           1.0     2.2963696920       -2.9139198265        0.0003948232

          INTERNUCLEAR DISTANCES (ANGS.)
          ------------------------------

                1 C          2 C          3 O          4 H          5 H     

   1 C       0.0000000    1.3114374 *  2.3623495 *  2.4331903 *  2.0769821 *
   2 C       1.3114374 *  0.0000000    1.3451359 *  1.8894861 *  1.0710060 *
   3 O       2.3623495 *  1.3451359 *  0.0000000    0.9495082 *  2.0255320 *
   4 H       2.4331903 *  1.8894861 *  0.9495082 *  0.0000000    2.8094410 *
   5 H       2.0769821 *  1.0710060 *  2.0255320 *  2.8094410 *  0.0000000  
   6 F       1.3446583 *  2.2998105 *  2.7659318 *  2.3335932 *  3.2806873  
   7 H       1.0681832 *  2.1219146 *  3.3521647    3.4997794    2.4895405 *

                6 F          7 H     

   1 C       1.3446583 *  1.0681832 *
   2 C       2.2998105 *  2.1219146 *
   3 O       2.7659318 *  3.3521647  
   4 H       2.3335932 *  3.4997794  
   5 H       3.2806873    2.4895405 *
   6 F       0.0000000    2.0311271 *
   7 H       2.0311271 *  0.0000000  

  * ... LESS THAN  3.000


     ATOMIC BASIS SET
     ----------------
 THE CONTRACTED PRIMITIVE FUNCTIONS HAVE BEEN UNNORMALIZED
 THE CONTRACTED BASIS FUNCTIONS ARE NOW NORMALIZED TO UNITY

  SHELL TYPE  PRIMITIVE        EXPONENT          CONTRACTION COEFFICIENT(S)

 C         

      1   S       1          3047.5248800    0.001834737132
      1   S       2           457.3695180    0.014037322813
      1   S       3           103.9486850    0.068842622264
      1   S       4            29.2101553    0.232184443216
      1   S       5             9.2866630    0.467941348435
      1   S       6             3.1639270    0.362311985337

      2   L       7             7.8682723   -0.119332419775    0.068999066591
      2   L       8             1.8812885   -0.160854151696    0.316423960957
      2   L       9             0.5442493    1.143456437840    0.744308290898

      3   L      10             0.1687145    1.000000000000    1.000000000000

      4   D      11             0.8000000    1.000000000000

 C         

      5   S      12          3047.5248800    0.001834737132
      5   S      13           457.3695180    0.014037322813
      5   S      14           103.9486850    0.068842622264
      5   S      15            29.2101553    0.232184443216
      5   S      16             9.2866630    0.467941348435
      5   S      17             3.1639270    0.362311985337

      6   L      18             7.8682723   -0.119332419775    0.068999066591
      6   L      19             1.8812885   -0.160854151696    0.316423960957
      6   L      20             0.5442493    1.143456437840    0.744308290898

      7   L      21             0.1687145    1.000000000000    1.000000000000

      8   D      22             0.8000000    1.000000000000

 O         

      9   S      23          5484.6716600    0.001831074430
      9   S      24           825.2349460    0.013950172200
      9   S      25           188.0469580    0.068445078098
      9   S      26            52.9645000    0.232714335992
      9   S      27            16.8975704    0.470192897984
      9   S      28             5.7996353    0.358520852987

     10   L      29            15.5396162   -0.110777549525    0.070874268231
     10   L      30             3.5999336   -0.148026262701    0.339752839147
     10   L      31             1.0137618    1.130767015354    0.727158577316

     11   L      32             0.2700058    1.000000000000    1.000000000000

     12   D      33             0.8000000    1.000000000000

 H         

     13   S      34            18.7311370    0.033494604338
     13   S      35             2.8253944    0.234726953484
     13   S      36             0.6401217    0.813757326146

     14   S      37             0.1612778    1.000000000000

 H         

     15   S      38            18.7311370    0.033494604338
     15   S      39             2.8253944    0.234726953484
     15   S      40             0.6401217    0.813757326146

     16   S      41             0.1612778    1.000000000000

 F         

     17   S      42          7001.7130900    0.001819616901
     17   S      43          1051.3660900    0.013916079607
     17   S      44           239.2856900    0.068405324535
     17   S      45            67.3974453    0.233185760119
     17   S      46            21.5199573    0.471267439240
     17   S      47             7.4031013    0.356618546182

     18   L      48            20.8479528   -0.108506975109    0.071628724237
     18   L      49             4.8083083   -0.146451658147    0.345912102697
     18   L      50             1.3440699    1.128688581135    0.722469956367

     19   L      51             0.3581514    1.000000000000    1.000000000000

     20   D      52             0.8000000    1.000000000000

 H         

     21   S      53            18.7311370    0.033494604338
     21   S      54             2.8253944    0.234726953484
     21   S      55             0.6401217    0.813757326146

     22   S      56             0.1612778    1.000000000000

 TOTAL NUMBER OF BASIS SET SHELLS             =   22
 NUMBER OF CARTESIAN GAUSSIAN BASIS FUNCTIONS =   66
 NUMBER OF ELECTRONS                          =   32
 CHARGE OF MOLECULE                           =    0
 SPIN MULTIPLICITY                            =    1
 NUMBER OF OCCUPIED ORBITALS (ALPHA)          =   16
 NUMBER OF OCCUPIED ORBITALS (BETA )          =   16
 TOTAL NUMBER OF ATOMS                        =    7
 THE NUCLEAR REPULSION ENERGY IS      117.7613908788

     $CONTRL OPTIONS
     ---------------
 SCFTYP=RHF          RUNTYP=HESSIAN      EXETYP=RUN     
 MPLEVL=       0     CITYP =NONE         CCTYP =NONE         VBTYP =NONE    
 DFTTYP=NONE         TDDFT =NONE    
 MULT  =       1     ICHARG=       0     NZVAR =       0     COORD =ZMTMPC  
 PP    =NONE         RELWFN=NONE         LOCAL =NONE         NUMGRD=       F
 ISPHER=      -1     NOSYM =       0     MAXIT =      30     UNITS =ANGS    
 PLTORB=       F     MOLPLT=       F     AIMPAC=       F     FRIEND=        
 NPRINT=       7     IREST =       0     GEOM  =INPUT   
 NORMF =       0     NORMP =       0     ITOL  =      20     ICUT  =       9
 INTTYP=BEST         GRDTYP=BEST         QMTTOL= 1.0E-06

     $SYSTEM OPTIONS
     ---------------
  REPLICATED MEMORY=     1000000 WORDS (ON EVERY NODE).
 DISTRIBUTED MEMDDI=           0 MILLION WORDS IN AGGREGATE,
 MEMDDI DISTRIBUTED OVER   1 PROCESSORS IS           0 WORDS/PROCESSOR.
 TOTAL MEMORY REQUESTED ON EACH PROCESSOR=     1000000 WORDS.
 TIMLIM=      525600.00 MINUTES, OR     365.0 DAYS.
 PARALL= F  BALTYP=  DLB     KDIAG=    0  COREFL= F
 MXSEQ2=     300 MXSEQ3=     150  mem10=         0

          ----------------
          PROPERTIES INPUT
          ----------------

     MOMENTS            FIELD           POTENTIAL          DENSITY
 IEMOM =       1   IEFLD =       0   IEPOT =       0   IEDEN =       0
 WHERE =COMASS     WHERE =NUCLEI     WHERE =NUCLEI     WHERE =NUCLEI  
 OUTPUT=BOTH       OUTPUT=BOTH       OUTPUT=BOTH       OUTPUT=BOTH    
 IEMINT=       0   IEFINT=       0                     IEDINT=       0
                                                       MORB  =       0
          EXTRAPOLATION IN EFFECT
          SOSCF IN EFFECT
 ORBITAL PRINTING OPTION: NPREO=     1    66     2     1

     -------------------------------
     INTEGRAL TRANSFORMATION OPTIONS
     -------------------------------
     NWORD  =            0
     CUTOFF = 1.0E-09     MPTRAN =       0
     DIRTRF =       F     AOINTS =DUP     

          ----------------------
          INTEGRAL INPUT OPTIONS
          ----------------------
 NOPK  =       1 NORDER=       0 SCHWRZ=       T

     ------------------------------------------
     THE POINT GROUP IS C1 , NAXIS= 1, ORDER= 1
     ------------------------------------------

     DIMENSIONS OF THE SYMMETRY SUBSPACES ARE
 A   =   66

 ..... DONE SETTING UP THE RUN .....
 STEP CPU TIME =     0.00 TOTAL CPU TIME =        0.0 (    0.0 MIN)
 TOTAL WALL CLOCK TIME=        0.0 SECONDS, CPU UTILIZATION IS   0.00%

     ---------------------------------
     HESSIAN MATRIX CONTROL PARAMETERS
     ---------------------------------
     METHOD=ANALYTIC   NVIB  =       2   VIBSIZ= 0.01000
     RDHESS=       F   PURIFY=       F   PRTIFC=       F
     VIBANL=       T   DECOMP=       F   PROJCT=       F
     SCLFAC= 1.00000   PRTSCN=       F   NPRT  =       0
     PULCOR=       F   NPUN  =       0   REDOVB=       T
     THERMOCHEMISTRY WILL BE PRINTED FOR    1 TEMPERATURES:
      298.15000

     ------------------------------
     CPHF RESPONSE SOLUTION OPTIONS
     ------------------------------
     POLAR  =       F     NWORD  =       0
     CPHF   =AO      

          ********************
          1 ELECTRON INTEGRALS
          ********************
 ...... END OF ONE-ELECTRON INTEGRALS ......
 STEP CPU TIME =     0.00 TOTAL CPU TIME =        0.0 (    0.0 MIN)
 TOTAL WALL CLOCK TIME=        0.0 SECONDS, CPU UTILIZATION IS   0.00%

          -------------
          GUESS OPTIONS
          -------------
          GUESS =HUCKEL            NORB  =       0          NORDER=       0
          MIX   =       F          PRTMO =       F          PUNMO =       F
          TOLZ  = 1.0E-08          TOLE  = 1.0E-05
          SYMDEN=       F          PURIFY=       F

 INITIAL GUESS ORBITALS GENERATED BY HUCKEL   ROUTINE.
 HUCKEL GUESS REQUIRES     39109 WORDS.

 SYMMETRIES FOR INITIAL GUESS ORBITALS FOLLOW.   BOTH SET(S).
    16 ORBITALS ARE OCCUPIED (    4 CORE ORBITALS).
     5=A        6=A        7=A        8=A        9=A       10=A       11=A   
    12=A       13=A       14=A       15=A       16=A       17=A       18=A   
    19=A       20=A       21=A       22=A       23=A       24=A       25=A   
    26=A   
 ...... END OF INITIAL ORBITAL SELECTION ......
 STEP CPU TIME =     0.01 TOTAL CPU TIME =        0.0 (    0.0 MIN)
 TOTAL WALL CLOCK TIME=        0.0 SECONDS, CPU UTILIZATION IS  50.00%

                    ----------------------
                    AO INTEGRAL TECHNOLOGY
                    ----------------------
     S,P,L SHELL ROTATED AXIS INTEGRALS, REPROGRAMMED BY
        KAZUYA ISHIMURA (IMS) AND JOSE SIERRA (SYNSTAR).
     S,P,D,L SHELL ROTATED AXIS INTEGRALS PROGRAMMED BY
        KAZUYA ISHIMURA (INSTITUTE FOR MOLECULAR SCIENCE).
     S,P,D,F,G SHELL TO TOTAL QUARTET ANGULAR MOMENTUM SUM 5,
        ERIC PROGRAM BY GRAHAM FLETCHER (ELORET AND NASA ADVANCED
        SUPERCOMPUTING DIVISION, AMES RESEARCH CENTER).
     S,P,D,F,G,L SHELL GENERAL RYS QUADRATURE PROGRAMMED BY
        MICHEL DUPUIS (PACIFIC NORTHWEST NATIONAL LABORATORY).

          --------------------
          2 ELECTRON INTEGRALS
          --------------------

 THE -PK- OPTION IS OFF, THE INTEGRALS ARE NOT IN SUPERMATRIX FORM.
 STORING   15000 INTEGRALS/RECORD ON DISK, USING 12 BYTES/INTEGRAL.
 TWO ELECTRON INTEGRAL EVALUATION REQUIRES   90649 WORDS OF MEMORY.
 SCHWARZ INEQUALITY OVERHEAD:      2208 INTEGRALS, T=        0.00
 II,JST,KST,LST =  1  1  1  1 NREC =         1 INTLOC =    1
 II,JST,KST,LST =  2  1  1  1 NREC =         1 INTLOC =    2
 II,JST,KST,LST =  3  1  1  1 NREC =         1 INTLOC =   34
 II,JST,KST,LST =  4  1  1  1 NREC =         1 INTLOC =  214
 II,JST,KST,LST =  5  1  1  1 NREC =         1 INTLOC = 1189
 II,JST,KST,LST =  6  1  1  1 NREC =         1 INTLOC = 3175
 II,JST,KST,LST =  7  1  1  1 NREC =         2 INTLOC =  850
 II,JST,KST,LST =  8  1  1  1 NREC =         3 INTLOC = 7937
 II,JST,KST,LST =  9  1  1  1 NREC =         7 INTLOC = 5489
 II,JST,KST,LST = 10  1  1  1 NREC =         8 INTLOC = 1791
 II,JST,KST,LST = 11  1  1  1 NREC =        12 INTLOC =11107
 II,JST,KST,LST = 12  1  1  1 NREC =        19 INTLOC = 8335
 II,JST,KST,LST = 13  1  1  1 NREC =        33 INTLOC =12618
 II,JST,KST,LST = 14  1  1  1 NREC =        36 INTLOC =14439
 II,JST,KST,LST = 15  1  1  1 NREC =        40 INTLOC = 5527
 II,JST,KST,LST = 16  1  1  1 NREC =        43 INTLOC =12876
 II,JST,KST,LST = 17  1  1  1 NREC =        47 INTLOC =10649
 II,JST,KST,LST = 18  1  1  1 NREC =        49 INTLOC =14188
 II,JST,KST,LST = 19  1  1  1 NREC =        63 INTLOC =14750
 II,JST,KST,LST = 20  1  1  1 NREC =        85 INTLOC = 2630
 II,JST,KST,LST = 21  1  1  1 NREC =       122 INTLOC = 4146
 II,JST,KST,LST = 22  1  1  1 NREC =       129 INTLOC = 6728
 SCHWARZ INEQUALITY TEST SKIPPED        2374 INTEGRAL BLOCKS.
 TOTAL NUMBER OF NONZERO TWO-ELECTRON INTEGRALS =             2058007
        138 INTEGRAL RECORDS WERE STORED ON DISK FILE  8.
  ...... END OF TWO-ELECTRON INTEGRALS .....
 STEP CPU TIME =     0.18 TOTAL CPU TIME =        0.2 (    0.0 MIN)
 TOTAL WALL CLOCK TIME=        0.2 SECONDS, CPU UTILIZATION IS  95.00%

          --------------------------
                 RHF SCF CALCULATION
          --------------------------

     NUCLEAR ENERGY =       117.7613908788
     MAXIT =   30     NPUNCH=    2
     EXTRAP=T  DAMP=F  SHIFT=F  RSTRCT=F  DIIS=F  DEM=F  SOSCF=T
     DENSITY MATRIX CONV=  1.00E-05
     SOSCF WILL OPTIMIZE     800 ORBITAL ROTATIONS, SOGTOL=   0.250
     MEMORY REQUIRED FOR RHF ITERS=     64616 WORDS.

 ITER EX DEM     TOTAL ENERGY        E CHANGE  DENSITY CHANGE     ORB. GRAD
   1  0  0     -251.0415025591  -251.0415025591   0.224301718   0.000000000
          ---------------START SECOND ORDER SCF---------------
   2  1  0     -251.6987707066    -0.6572681475   0.070208752   0.039705469
   3  2  0     -251.7299644514    -0.0311937448   0.029847086   0.013057987
   4  3  0     -251.7331334139    -0.0031689625   0.008066369   0.004219101
   5  4  0     -251.7333371519    -0.0002037380   0.001458189   0.001067197
   6  5  0     -251.7333579966    -0.0000208447   0.000547767   0.000207978
   7  6  0     -251.7333592928    -0.0000012963   0.000227772   0.000064225
   8  7  0     -251.7333593890    -0.0000000962   0.000039052   0.000015841
   9  8  0     -251.7333593934    -0.0000000043   0.000021964   0.000007292
  10  9  0     -251.7333593943    -0.0000000009   0.000003993   0.000001214
  11 10  0     -251.7333593943    -0.0000000000   0.000001198   0.000000363

          -----------------
          DENSITY CONVERGED
          -----------------
     TIME TO FORM FOCK OPERATORS=       0.4 SECONDS (       0.0 SEC/ITER)
     TIME TO SOLVE SCF EQUATIONS=       0.0 SECONDS (       0.0 SEC/ITER)

 FINAL RHF ENERGY IS     -251.7333593943 AFTER  11 ITERATIONS

          ------------
          EIGENVECTORS
          ------------

                      1          2          3          4          5
                  -26.3071   -20.5979   -11.3040   -11.2987    -1.6188
                     A          A          A          A          A   
    1  C  1  S   -0.000014   0.000005   0.979758  -0.177238  -0.057535
    2  C  1  S    0.000290   0.000054   0.026470  -0.005157   0.098085
    3  C  1  X    0.000282   0.000057   0.000941   0.000003   0.043765
    4  C  1  Y    0.000493  -0.000036   0.001560  -0.000350   0.077067
    5  C  1  Z   -0.000000  -0.000000  -0.000000   0.000000  -0.000003
    6  C  1  S    0.000337  -0.000886  -0.008066   0.005815   0.021781
    7  C  1  X   -0.000427   0.000414   0.000996  -0.002009   0.011714
    8  C  1  Y    0.000063   0.000012   0.001411  -0.000996  -0.009935
    9  C  1  Z   -0.000000   0.000000   0.000000  -0.000000   0.000002
   10  C  1 XX    0.000088  -0.000038  -0.001310   0.000038  -0.000826
   11  C  1 YY    0.000187  -0.000006  -0.001353  -0.000188   0.014812
   12  C  1 ZZ   -0.000082  -0.000013  -0.002438   0.000337  -0.009986
   13  C  1 XY    0.000155   0.000074   0.000375  -0.000130   0.016192
   14  C  1 XZ    0.000000  -0.000000   0.000000  -0.000000  -0.000001
   15  C  1 YZ   -0.000000   0.000000  -0.000000   0.000000  -0.000001
   16  C  2  S    0.000006  -0.000016   0.176495   0.979849  -0.011130
   17  C  2  S    0.000103   0.000374   0.004483   0.026826   0.020530
   18  C  2  X   -0.000052  -0.000204  -0.000253  -0.000537   0.015504
   19  C  2  Y    0.000000   0.000257   0.000116   0.000978   0.007813
   20  C  2  Z    0.000000   0.000000  -0.000000   0.000000   0.000001
   21  C  2  S   -0.000487   0.000403   0.002001  -0.009675   0.021029
   22  C  2  X   -0.000366   0.000956   0.001516  -0.001926   0.010712
   23  C  2  Y   -0.000125   0.000035  -0.000688   0.001862   0.009440
   24  C  2  Z   -0.000000  -0.000000   0.000000  -0.000000   0.000000
   25  C  2 XX   -0.000091  -0.000055  -0.000372  -0.001298   0.004236
   26  C  2 YY   -0.000026  -0.000139  -0.000686  -0.001470  -0.000578
   27  C  2 ZZ    0.000003  -0.000093  -0.000549  -0.002547  -0.001255
   28  C  2 XY   -0.000047   0.000064  -0.000068  -0.000361   0.001660
   29  C  2 XZ   -0.000000   0.000000   0.000000  -0.000000   0.000000
   30  C  2 YZ    0.000000  -0.000000  -0.000000   0.000000   0.000000
   31  O  3  S   -0.000006   0.994611  -0.000034  -0.000101  -0.007521
   32  O  3  S   -0.000027   0.021221  -0.000043   0.000614   0.018538
   33  O  3  X    0.000001   0.001369   0.000010   0.000084   0.006842
   34  O  3  Y   -0.000018  -0.000088   0.000001  -0.000107  -0.001520
   35  O  3  Z    0.000000  -0.000001  -0.000000  -0.000000  -0.000003
   36  O  3  S    0.000181   0.004289   0.000316  -0.001732   0.004717
   37  O  3  X    0.000060  -0.000662  -0.000031  -0.000847   0.001049
   38  O  3  Y    0.000107  -0.000155  -0.000101   0.001370  -0.002486
   39  O  3  Z   -0.000000   0.000000   0.000000   0.000000   0.000001
   40  O  3 XX   -0.000020  -0.004128   0.000067   0.000002   0.002310
   41  O  3 YY   -0.000021  -0.004190  -0.000129  -0.000535   0.001564
   42  O  3 ZZ   -0.000009  -0.003966  -0.000022   0.000465   0.000276
   43  O  3 XY    0.000008   0.000001  -0.000023   0.000489  -0.000291
   44  O  3 XZ   -0.000000   0.000000   0.000000   0.000000  -0.000001
   45  O  3 YZ   -0.000000   0.000000   0.000000  -0.000000   0.000000
   46  H  4  S   -0.000002   0.000422  -0.000016   0.000131   0.006002
   47  H  4  S   -0.000190  -0.000240   0.000275  -0.000002   0.005727
   48  H  5  S    0.000010   0.000026  -0.000111  -0.000097   0.001911
   49  H  5  S   -0.000111   0.000205   0.000176   0.002221   0.003785
   50  F  6  S    0.994413   0.000001   0.000007  -0.000036  -0.220753
   51  F  6  S    0.017751   0.000009   0.001032  -0.000471   0.514456
   52  F  6  X   -0.000514   0.000008  -0.000205   0.000068  -0.036832
   53  F  6  Y   -0.000771  -0.000004  -0.000349   0.000067  -0.056035
   54  F  6  Z    0.000000   0.000000   0.000000  -0.000000   0.000001
   55  F  6  S    0.008243  -0.000022  -0.002654   0.001304   0.435324
   56  F  6  X    0.000366  -0.000019   0.001024  -0.000314  -0.025093
   57  F  6  Y    0.000523   0.000036   0.001766  -0.000491  -0.032455
   58  F  6  Z   -0.000000  -0.000000  -0.000000   0.000000  -0.000000
   59  F  6 XX   -0.004714  -0.000004   0.000350  -0.000108   0.027031
   60  F  6 YY   -0.004932  -0.000012  -0.000352  -0.000043   0.033376
   61  F  6 ZZ   -0.004584   0.000010   0.000834  -0.000365   0.020709
   62  F  6 XY   -0.000273  -0.000006  -0.000692   0.000235   0.008629
   63  F  6 XZ    0.000000   0.000000   0.000000   0.000000   0.000000
   64  F  6 YZ    0.000000   0.000000   0.000000  -0.000000  -0.000001
   65  H  7  S   -0.000003   0.000036  -0.000167  -0.000095   0.013229
   66  H  7  S    0.000087  -0.000020   0.002127  -0.000643  -0.007117

                      6          7          8          9         10
                   -1.4134    -1.0396    -0.8466    -0.7650    -0.7292
                     A          A          A          A          A   
    1  C  1  S   -0.012606  -0.151588  -0.091936   0.019201  -0.014309
    2  C  1  S    0.025906   0.299662   0.183154  -0.041746   0.028163
    3  C  1  X   -0.033537  -0.139536   0.107661  -0.285781  -0.047491
    4  C  1  Y    0.001469  -0.028556   0.004392   0.080811  -0.278941
    5  C  1  Z   -0.000001  -0.000009  -0.000001  -0.000053   0.000000
    6  C  1  S    0.017992   0.194143   0.160313  -0.030469   0.069814
    7  C  1  X   -0.007150  -0.015236   0.019338  -0.101656   0.012768
    8  C  1  Y    0.011871  -0.031820  -0.059673   0.060345  -0.061068
    9  C  1  Z   -0.000002   0.000002  -0.000003  -0.000024  -0.000006
   10  C  1 XX    0.004431   0.015268   0.001356  -0.000849   0.011440
   11  C  1 YY   -0.002771  -0.003733   0.013736  -0.013435  -0.013986
   12  C  1 ZZ   -0.000517  -0.010634  -0.009453   0.003107   0.002686
   13  C  1 XY   -0.004073  -0.008356  -0.000245  -0.004265  -0.018699
   14  C  1 XZ    0.000000   0.000004   0.000003   0.000003   0.000005
   15  C  1 YZ   -0.000001  -0.000003  -0.000003   0.000000  -0.000001
   16  C  2  S   -0.078393  -0.140908   0.096835  -0.023083  -0.009273
   17  C  2  S    0.144661   0.278400  -0.195577   0.045883   0.017002
   18  C  2  X   -0.054126   0.151819   0.177965   0.222883   0.069740
   19  C  2  Y    0.098444  -0.053760   0.023826   0.017941  -0.203735
   20  C  2  Z    0.000012   0.000019  -0.000028  -0.000030  -0.000037
   21  C  2  S    0.038698   0.197015  -0.153227  -0.000489   0.045479
   22  C  2  X   -0.003630   0.024686   0.024311   0.044442  -0.002349
   23  C  2  Y   -0.017188  -0.012993   0.073583  -0.001968  -0.080969
   24  C  2  Z   -0.000003  -0.000002  -0.000001  -0.000015  -0.000007
   25  C  2 XX    0.000803   0.017855  -0.003834  -0.000128  -0.002797
   26  C  2 YY    0.018319  -0.005529  -0.012502  -0.007322  -0.002203
   27  C  2 ZZ   -0.011945  -0.010524   0.010836  -0.000017   0.002928
   28  C  2 XY   -0.017434   0.007650   0.002040   0.010768   0.010655
   29  C  2 XZ   -0.000002   0.000001   0.000005   0.000004   0.000004
   30  C  2 YZ    0.000003  -0.000000  -0.000004  -0.000005  -0.000008
   31  O  3  S   -0.201829   0.054484  -0.018883   0.029241  -0.008380
   32  O  3  S    0.454475  -0.126761   0.048113  -0.073017   0.020063
   33  O  3  X    0.092347   0.026899   0.027496   0.153291  -0.051560
   34  O  3  Y   -0.017060  -0.097227   0.306681   0.191267   0.234237
   35  O  3  Z   -0.000065   0.000035  -0.000095  -0.000105  -0.000110
   36  O  3  S    0.425426  -0.148734   0.036492  -0.091129   0.036196
   37  O  3  X    0.052044   0.014298   0.011227   0.104922  -0.028252
   38  O  3  Y   -0.005749  -0.048843   0.181826   0.098912   0.137804
   39  O  3  Z   -0.000039   0.000018  -0.000054  -0.000059  -0.000070
   40  O  3 XX    0.015966   0.001262   0.007873   0.015411  -0.003342
   41  O  3 YY    0.021040  -0.004184   0.001560  -0.004419   0.005679
   42  O  3 ZZ   -0.002040  -0.002440   0.000482  -0.006524   0.001406
   43  O  3 XY    0.003926  -0.013776   0.027944   0.011950   0.019457
   44  O  3 XZ   -0.000018   0.000004  -0.000013  -0.000017  -0.000008
   45  O  3 YZ   -0.000013   0.000011  -0.000024  -0.000013  -0.000017
   46  H  4  S    0.117488  -0.062995   0.148930   0.112975   0.092404
   47  H  4  S   -0.009397  -0.012889   0.030087   0.056983   0.043074
   48  H  5  S    0.022575   0.083482  -0.132221  -0.045654   0.078255
   49  H  5  S   -0.006165   0.014674  -0.041714  -0.030898   0.032002
   50  F  6  S    0.017219   0.046832   0.040763  -0.015452  -0.029103
   51  F  6  S   -0.040142  -0.107536  -0.097645   0.027099   0.061164
   52  F  6  X   -0.007341  -0.083092  -0.105300  -0.196070   0.354816
   53  F  6  Y    0.000930  -0.095080  -0.234133   0.317728   0.221554
   54  F  6  Z   -0.000000   0.000001   0.000005  -0.000075  -0.000027
   55  F  6  S   -0.041647  -0.138670  -0.123910   0.068744   0.114177
   56  F  6  X   -0.004551  -0.052186  -0.074614  -0.132738   0.241789
   57  F  6  Y    0.002675  -0.060288  -0.152603   0.210702   0.152726
   58  F  6  Z   -0.000001   0.000001   0.000004  -0.000051  -0.000018
   59  F  6 XX   -0.000465   0.000880  -0.002189   0.010080  -0.011478
   60  F  6 YY   -0.002058   0.004800   0.010019  -0.022347  -0.009657
   61  F  6 ZZ   -0.002335  -0.005736  -0.007921  -0.001948   0.003888
   62  F  6 XY   -0.000127   0.010007   0.011403  -0.000344  -0.018599
   63  F  6 XZ    0.000000  -0.000000  -0.000000   0.000003   0.000001
   64  F  6 YZ   -0.000000  -0.000000  -0.000001   0.000003   0.000001
   65  H  7  S    0.002226   0.084713   0.102107  -0.128967   0.121653
   66  H  7  S    0.003387   0.006606   0.024843  -0.057876   0.075047

                     11         12         13         14         15
                   -0.6865    -0.6307    -0.6021    -0.5803    -0.5493
                     A          A          A          A          A   
    1  C  1  S   -0.000009  -0.007814  -0.045561   0.000054   0.021982
    2  C  1  S    0.000019   0.020212   0.091393  -0.000103  -0.053517
    3  C  1  X   -0.000049  -0.051413   0.051169  -0.000477   0.273429
    4  C  1  Y   -0.000026  -0.063244  -0.198560   0.000505  -0.120046
    5  C  1  Z    0.160801   0.000007   0.000134   0.073055   0.000174
    6  C  1  S    0.000046  -0.005287   0.168508  -0.000247  -0.025097
    7  C  1  X   -0.000029   0.034371  -0.023814  -0.000060   0.052262
    8  C  1  Y    0.000007  -0.011836  -0.096747   0.000237  -0.014678
    9  C  1  Z    0.099283   0.000005   0.000049   0.032227   0.000072
   10  C  1 XX    0.000002   0.013065  -0.009400   0.000039  -0.012568
   11  C  1 YY    0.000001  -0.014806   0.012734  -0.000055   0.023854
   12  C  1 ZZ   -0.000003   0.001349  -0.001244   0.000001  -0.001972
   13  C  1 XY   -0.000007  -0.015060  -0.034974   0.000078  -0.009368
   14  C  1 XZ    0.004327  -0.000001  -0.000024  -0.014356  -0.000023
   15  C  1 YZ    0.016918  -0.000002  -0.000014  -0.003903  -0.000008
   16  C  2  S    0.000009  -0.010350   0.047236  -0.000067   0.002780
   17  C  2  S   -0.000014   0.023991  -0.097745   0.000146  -0.006333
   18  C  2  X    0.000051   0.093471   0.036233   0.000368  -0.292401
   19  C  2  Y    0.000015   0.311143   0.153614  -0.000343  -0.031712
   20  C  2  Z    0.081244   0.000042   0.000386   0.214231   0.000311
   21  C  2  S   -0.000053   0.006036  -0.178246   0.000313  -0.059410
   22  C  2  X   -0.000004   0.081914  -0.002815   0.000085  -0.078047
   23  C  2  Y   -0.000012   0.093569   0.103922  -0.000220  -0.043112
   24  C  2  Z    0.032568   0.000010   0.000208   0.124256   0.000185
   25  C  2 XX   -0.000002  -0.006311   0.006603   0.000002  -0.020468
   26  C  2 YY   -0.000003   0.001829  -0.013332  -0.000015   0.031086
   27  C  2 ZZ    0.000004  -0.003017   0.002191   0.000011  -0.003509
   28  C  2 XY   -0.000001  -0.027027  -0.029321   0.000063   0.005613
   29  C  2 XZ    0.006787  -0.000003  -0.000013  -0.006485  -0.000008
   30  C  2 YZ    0.002928   0.000007   0.000037   0.018836   0.000024
   31  O  3  S   -0.000008   0.028435  -0.032772  -0.000040   0.045456
   32  O  3  S    0.000010  -0.071852   0.081631   0.000084  -0.106384
   33  O  3  X    0.000019   0.332241  -0.178949  -0.000066   0.394453
   34  O  3  Y    0.000032  -0.162737  -0.189576   0.000538   0.014320
   35  O  3  Z    0.074167   0.000044   0.001062   0.558255   0.000660
   36  O  3  S    0.000057  -0.091412   0.104734   0.000230  -0.189883
   37  O  3  X    0.000026   0.221614  -0.132728  -0.000030   0.300208
   38  O  3  Y    0.000026  -0.108923  -0.130425   0.000399  -0.004373
   39  O  3  Z    0.051925   0.000023   0.000764   0.404850   0.000502
   40  O  3 XX    0.000001   0.021385  -0.009210   0.000003   0.023258
   41  O  3 YY   -0.000003  -0.010852  -0.003537   0.000011   0.001015
   42  O  3 ZZ   -0.000009  -0.008989   0.006689  -0.000031  -0.009729
   43  O  3 XY    0.000001  -0.014766  -0.015359   0.000030   0.005516
   44  O  3 XZ    0.005541  -0.000011   0.000070   0.030204   0.000018
   45  O  3 YZ   -0.001458   0.000008   0.000005  -0.005772  -0.000013
   46  H  4  S   -0.000011  -0.000167  -0.123197   0.000010   0.115660
   47  H  4  S   -0.000017  -0.033876  -0.034132  -0.000062   0.087606
   48  H  5  S   -0.000030  -0.179159  -0.154544   0.000152   0.128784
   49  H  5  S   -0.000028  -0.126311  -0.093467   0.000048   0.114605
   50  F  6  S   -0.000004  -0.003617  -0.004073   0.000001   0.002623
   51  F  6  S    0.000009   0.010391  -0.002622   0.000021  -0.007358
   52  F  6  X   -0.000031   0.351904  -0.215748   0.000666  -0.217594
   53  F  6  Y    0.000126  -0.023168   0.345714  -0.000738   0.102434
   54  F  6  Z    0.607008  -0.000033  -0.000403  -0.157875  -0.000235
   55  F  6  S    0.000015   0.004724   0.045448  -0.000066  -0.010120
   56  F  6  X   -0.000022   0.254883  -0.163321   0.000511  -0.169636
   57  F  6  Y    0.000088  -0.013654   0.250338  -0.000549   0.086638
   58  F  6  Z    0.426117  -0.000025  -0.000301  -0.119400  -0.000183
   59  F  6 XX    0.000002  -0.008305   0.002455  -0.000008   0.003260
   60  F  6 YY   -0.000006   0.003335  -0.017253   0.000034  -0.004276
   61  F  6 ZZ    0.000001   0.002850  -0.002804   0.000007  -0.001540
   62  F  6 XY   -0.000002  -0.010299  -0.001367   0.000002  -0.000771
   63  F  6 XZ   -0.014289   0.000000   0.000005   0.001449   0.000002
   64  F  6 YZ   -0.020608   0.000001   0.000011   0.003986   0.000005
   65  H  7  S    0.000021   0.025249   0.184120  -0.000528   0.148839
   66  H  7  S    0.000016   0.015139   0.131425  -0.000417   0.152123

                     16         17         18         19         20
                   -0.3505     0.2101     0.2345     0.2666     0.3045
                     A          A          A          A          A   
    1  C  1  S   -0.000009  -0.000018  -0.016674   0.040049   0.108734
    2  C  1  S    0.000035   0.000043   0.000047  -0.037829  -0.142073
    3  C  1  X   -0.000102  -0.000001   0.043671  -0.096920  -0.150180
    4  C  1  Y    0.000049  -0.000099   0.095190   0.233263   0.059366
    5  C  1  Z    0.399345  -0.375726   0.000057  -0.000115  -0.000033
    6  C  1  S    0.000022   0.000203   0.353070  -0.960452  -1.603675
    7  C  1  X   -0.000045   0.000086   0.190468  -0.263239  -0.621371
    8  C  1  Y   -0.000035  -0.000295   0.266770   0.545260   0.962335
    9  C  1  Z    0.301376  -0.730322   0.000060  -0.000267  -0.000185
   10  C  1 XX    0.000005   0.000001   0.003234   0.002290   0.010558
   11  C  1 YY   -0.000003   0.000002  -0.001396  -0.000229   0.013529
   12  C  1 ZZ   -0.000004  -0.000006   0.005831   0.004287  -0.004636
   13  C  1 XY    0.000001   0.000007  -0.009961  -0.019476   0.016820
   14  C  1 XZ   -0.030136  -0.026859   0.000006  -0.000006  -0.000002
   15  C  1 YZ   -0.008679   0.009013  -0.000006  -0.000001   0.000001
   16  C  2  S    0.000005   0.000022  -0.021378   0.047209  -0.068817
   17  C  2  S   -0.000002  -0.000006   0.019858  -0.055950   0.123473
   18  C  2  X    0.000008  -0.000010  -0.068863   0.141080  -0.025866
   19  C  2  Y    0.000007  -0.000062   0.093091   0.219804  -0.112244
   20  C  2  Z    0.324303   0.405055  -0.000021   0.000093   0.000024
   21  C  2  S   -0.000018  -0.000243   0.381366  -0.918284   0.756231
   22  C  2  X   -0.000033  -0.000006  -0.330405   0.472900  -0.192750
   23  C  2  Y    0.000044  -0.000140   0.136212   0.701968  -1.189404
   24  C  2  Z    0.255408   0.785458  -0.000059   0.000204   0.000076
   25  C  2 XX    0.000006   0.000017   0.006889   0.001118  -0.009678
   26  C  2 YY   -0.000004   0.000002  -0.016233   0.001755  -0.006866
   27  C  2 ZZ    0.000002  -0.000008   0.007674   0.003328   0.000099
   28  C  2 XY   -0.000004  -0.000015   0.016939   0.021900   0.006486
   29  C  2 XZ    0.037080  -0.022186  -0.000005  -0.000003  -0.000000
   30  C  2 YZ   -0.014180  -0.009897  -0.000001  -0.000004  -0.000007
   31  O  3  S    0.000018   0.000017   0.094297  -0.003028  -0.002929
   32  O  3  S   -0.000026   0.000004  -0.088825  -0.020272  -0.056859
   33  O  3  X   -0.000115  -0.000019  -0.182586  -0.047483  -0.040099
   34  O  3  Y   -0.000065  -0.000152  -0.104401   0.049275   0.002453
   35  O  3  Z   -0.292261  -0.175361   0.000209  -0.000079   0.000013
   36  O  3  S   -0.000157  -0.000261  -1.288313   0.102455   0.343917
   37  O  3  X   -0.000120  -0.000068  -0.419485  -0.111586   0.098901
   38  O  3  Y   -0.000040  -0.000256  -0.229080   0.050724  -0.098868
   39  O  3  Z   -0.284194  -0.271369   0.000475  -0.000148  -0.000023
   40  O  3 XX   -0.000005   0.000007   0.031522  -0.002378  -0.016927
   41  O  3 YY    0.000008   0.000025   0.043018  -0.019159  -0.008030
   42  O  3 ZZ    0.000021   0.000018   0.050715  -0.009060  -0.020011
   43  O  3 XY   -0.000001  -0.000001  -0.007479  -0.001863  -0.012243
   44  O  3 XZ   -0.008966  -0.001070   0.000022  -0.000000  -0.000002
   45  O  3 YZ   -0.006243  -0.019863   0.000009  -0.000000  -0.000002
   46  H  4  S    0.000059   0.000116   0.083762  -0.031162   0.001445
   47  H  4  S    0.000054   0.000488   1.390280  -0.293450   0.185034
   48  H  5  S   -0.000013  -0.000003  -0.015506   0.034054  -0.031277
   49  H  5  S   -0.000017  -0.000125  -0.200752   1.640480  -1.569957
   50  F  6  S   -0.000003  -0.000007   0.040719   0.013074  -0.020361
   51  F  6  S   -0.000005  -0.000003  -0.054328  -0.034702   0.084483
   52  F  6  X    0.000023  -0.000024   0.104106   0.069068  -0.063534
   53  F  6  Y   -0.000032  -0.000019   0.031568   0.024149  -0.137567
   54  F  6  Z   -0.204363   0.138535   0.000013   0.000032   0.000013
   55  F  6  S    0.000051   0.000103  -0.395720  -0.090170   0.043247
   56  F  6  X    0.000016  -0.000047   0.160409   0.119439  -0.013013
   57  F  6  Y   -0.000040  -0.000027   0.131831   0.007261  -0.197859
   58  F  6  Z   -0.195036   0.180829  -0.000007   0.000049   0.000026
   59  F  6 XX   -0.000004  -0.000008   0.011909   0.001511   0.015181
   60  F  6 YY   -0.000004  -0.000003   0.009204  -0.006206   0.016418
   61  F  6 ZZ   -0.000004  -0.000008   0.015943  -0.003854   0.013082
   62  F  6 XY    0.000002   0.000000  -0.012073   0.000362  -0.007179
   63  F  6 XZ   -0.001074   0.001956   0.000004   0.000001   0.000001
   64  F  6 YZ   -0.001279   0.010542  -0.000005   0.000003  -0.000001
   65  H  7  S   -0.000021  -0.000034   0.009771   0.013663   0.012422
   66  H  7  S   -0.000064  -0.000379   0.033827   1.363573   2.024977

                     21         22         23         24         25
                    0.3462     0.4967     0.6048     0.7038     0.7366
                     A          A          A          A          A   
    1  C  1  S   -0.027652  -0.010098   0.127857   0.047211   0.000006
    2  C  1  S    0.019263  -0.010163  -0.079970   0.377941  -0.000008
    3  C  1  X    0.139688   0.067548   0.152417  -0.506050  -0.000105
    4  C  1  Y    0.196018   0.114243  -0.223053  -0.233763   0.000075
    5  C  1  Z   -0.000112   0.000057   0.000033  -0.000051   0.753919
    6  C  1  S    0.270060  -1.649825  -3.864933  -0.427823   0.000046
    7  C  1  X    0.702371   1.751835   2.893129   1.077478   0.000141
    8  C  1  Y    0.801626   1.156568  -1.489251   0.167088  -0.000123
    9  C  1  Z   -0.000284   0.000286   0.000343   0.000151  -0.734117
   10  C  1 XX    0.009358  -0.005717   0.017244   0.094864   0.000022
   11  C  1 YY   -0.009432   0.003542  -0.002665   0.061904   0.000002
   12  C  1 ZZ    0.013108   0.010567  -0.022512  -0.027909  -0.000018
   13  C  1 XY   -0.017725   0.030806  -0.020442   0.029821  -0.000007
   14  C  1 XZ   -0.000013   0.000004   0.000003   0.000025  -0.055632
   15  C  1 YZ    0.000003   0.000007  -0.000012  -0.000008   0.020739
   16  C  2  S   -0.072636   0.029972  -0.125923   0.041479  -0.000006
   17  C  2  S    0.051708  -0.034030   0.064776   0.353105  -0.000029
   18  C  2  X   -0.108023   0.073904   0.137994   0.498218  -0.000004
   19  C  2  Y   -0.001362  -0.180767   0.219941  -0.230370   0.000032
   20  C  2  Z    0.000103  -0.000009   0.000015  -0.000015   0.676391
   21  C  2  S    1.742153   0.686449   4.212364   0.015549   0.000143
   22  C  2  X   -0.499514   2.306110   2.842409  -0.634405  -0.000069
   23  C  2  Y   -0.047185  -1.733511   1.392465   0.293226   0.000059
   24  C  2  Z    0.000418  -0.000102   0.000481  -0.000079  -0.623263
   25  C  2 XX   -0.001341  -0.000384  -0.028353   0.101631  -0.000030
   26  C  2 YY   -0.005764  -0.002162   0.018734   0.053617  -0.000024
   27  C  2 ZZ    0.004108  -0.016880   0.019299  -0.031782   0.000014
   28  C  2 XY    0.033872   0.011425  -0.011493  -0.041372   0.000021
   29  C  2 XZ   -0.000003   0.000005  -0.000001  -0.000003   0.057594
   30  C  2 YZ   -0.000005   0.000002  -0.000022   0.000019   0.018856
   31  O  3  S    0.008472  -0.076405   0.035289  -0.005038   0.000001
   32  O  3  S   -0.029651   0.072182  -0.045452   0.108175   0.000053
   33  O  3  X   -0.030965  -0.015793  -0.102419   0.130369   0.000009
   34  O  3  Y    0.263195  -0.191546   0.093375  -0.107170   0.000090
   35  O  3  Z   -0.000140  -0.000023  -0.000012   0.000073   0.079549
   36  O  3  S   -0.068386   1.537051  -0.667568  -0.365091  -0.000057
   37  O  3  X   -0.004828   0.269443  -0.596845   0.039237   0.000013
   38  O  3  Y    0.679570  -0.921461   0.245581  -0.025046   0.000006
   39  O  3  Z   -0.000296  -0.000067  -0.000052   0.000072   0.060800
   40  O  3 XX   -0.001625  -0.014841  -0.012436   0.019352   0.000025
   41  O  3 YY   -0.007066  -0.012176  -0.005829  -0.004239   0.000038
   42  O  3 ZZ   -0.003917  -0.033389   0.028693   0.024727   0.000009
   43  O  3 XY    0.012244  -0.030666  -0.032916   0.057696  -0.000024
   44  O  3 XZ   -0.000003  -0.000003   0.000001  -0.000005   0.013512
   45  O  3 YZ   -0.000015   0.000014   0.000006  -0.000015  -0.029279
   46  H  4  S   -0.042980  -0.035528  -0.146348   0.120472   0.000017
   47  H  4  S   -0.967491   0.473177   0.124205   0.037491  -0.000162
   48  H  5  S    0.080866   0.095982  -0.075683   0.094625  -0.000017
   49  H  5  S   -0.951504  -0.067518   1.147689   0.126149   0.000002
   50  F  6  S    0.059139   0.057823  -0.035889  -0.002669   0.000000
   51  F  6  S    0.001236  -0.058277   0.052323   0.140038   0.000039
   52  F  6  X    0.036990  -0.017655  -0.142847  -0.149364  -0.000025
   53  F  6  Y    0.193969   0.084372  -0.064305  -0.063379   0.000012
   54  F  6  Z    0.000007  -0.000028   0.000012  -0.000017   0.049506
   55  F  6  S   -0.852100  -0.861762   0.499038  -0.342620  -0.000061
   56  F  6  X    0.138785   0.077915  -0.405559  -0.111006  -0.000018
   57  F  6  Y    0.374960   0.350392  -0.140141   0.047319   0.000008
   58  F  6  Z    0.000021  -0.000062  -0.000015  -0.000024   0.085271
   59  F  6 XX    0.050213   0.015338   0.011231   0.052789   0.000020
   60  F  6 YY    0.038942   0.003673  -0.005481   0.013370   0.000009
   61  F  6 ZZ    0.052813   0.023670  -0.013756   0.051866   0.000021
   62  F  6 XY   -0.002604  -0.018041  -0.011215  -0.038501   0.000002
   63  F  6 XZ   -0.000003   0.000003   0.000007   0.000005  -0.017244
   64  F  6 YZ    0.000008  -0.000005  -0.000001  -0.000000  -0.032917
   65  H  7  S    0.020863  -0.144925   0.129303   0.137250   0.000019
   66  H  7  S    0.163665   0.144032  -1.350874  -0.139947  -0.000041

                     26         27         28         29         30
                    0.7767     0.8553     0.8707     0.8940     1.0641
                     A          A          A          A          A   
    1  C  1  S    0.001660  -0.000011  -0.022848   0.027523   0.021823
    2  C  1  S   -0.821853  -0.000110   0.092586   0.386835   0.148026
    3  C  1  X   -0.164472  -0.000205  -0.193227   0.473218   0.432413
    4  C  1  Y   -0.349483   0.000007   0.445391   0.516943  -0.275541
    5  C  1  Z   -0.000052   0.744419  -0.000122   0.000135   0.000060
    6  C  1  S    1.301193   0.000252   0.185765  -1.706403  -0.312906
    7  C  1  X    0.353665   0.000238   1.095661   0.412876  -0.852884
    8  C  1  Y    0.260341  -0.000109  -0.941142  -1.187612   1.280066
    9  C  1  Z    0.000053  -1.202360   0.000314  -0.000089  -0.000108
   10  C  1 XX   -0.072973  -0.000052  -0.016268   0.101901   0.133374
   11  C  1 YY   -0.039758   0.000008  -0.078520  -0.077938  -0.020244
   12  C  1 ZZ   -0.013349   0.000008   0.045555   0.010012  -0.016482
   13  C  1 XY    0.120050   0.000022   0.024306  -0.036663   0.018354
   14  C  1 XZ   -0.000028   0.033280  -0.000005   0.000026   0.000040
   15  C  1 YZ    0.000016   0.018392   0.000015   0.000005   0.000010
   16  C  2  S   -0.010139   0.000006  -0.018273  -0.028579  -0.062666
   17  C  2  S   -0.761731   0.000063   0.127606  -0.529544   0.328024
   18  C  2  X    0.112633  -0.000092   0.015967   0.506497   0.180483
   19  C  2  Y   -0.265677   0.000010   0.472389  -0.523919   0.003827
   20  C  2  Z    0.000086  -0.820334  -0.000015  -0.000089  -0.000036
   21  C  2  S    1.293637  -0.000116   1.016227   2.093436  -1.147521
   22  C  2  X   -0.472980  -0.000018  -0.254153   0.283456  -0.206184
   23  C  2  Y    0.389615   0.000176  -0.566975   1.102451  -0.981753
   24  C  2  Z   -0.000053   1.277872  -0.000010   0.000320  -0.000145
   25  C  2 XX   -0.076707   0.000045   0.057501  -0.114326  -0.052885
   26  C  2 YY   -0.065981   0.000009  -0.059458   0.043141  -0.152835
   27  C  2 ZZ   -0.002690  -0.000000   0.030666  -0.010269   0.103939
   28  C  2 XY   -0.102285  -0.000018  -0.054388  -0.050626   0.019613
   29  C  2 XZ    0.000000   0.032893  -0.000005  -0.000027  -0.000067
   30  C  2 YZ    0.000002  -0.027142   0.000021   0.000010   0.000019
   31  O  3  S    0.001237   0.000008   0.027176  -0.011865   0.016524
   32  O  3  S   -0.000869  -0.000015  -0.078970   0.051288  -0.015764
   33  O  3  X    0.111481   0.000002   0.170776   0.174849  -0.521890
   34  O  3  Y   -0.017205  -0.000039   0.022740  -0.181710   0.108231
   35  O  3  Z   -0.000101  -0.073108   0.000132   0.000005   0.000206
   36  O  3  S   -0.393139  -0.000161  -0.156045  -0.626473   0.410341
   37  O  3  X   -0.075623  -0.000072  -0.164669  -0.210999   0.512533
   38  O  3  Y    0.181504   0.000039   0.193570   0.052139  -0.656320
   39  O  3  Z    0.000042  -0.124070   0.000055  -0.000043   0.000034
   40  O  3 XX   -0.000720  -0.000015  -0.062985  -0.015848   0.059682
   41  O  3 YY   -0.074712   0.000004   0.078537  -0.122191   0.140684
   42  O  3 ZZ    0.043173  -0.000001  -0.033332   0.073056  -0.058368
   43  O  3 XY    0.063875   0.000033  -0.012400   0.086155   0.059089
   44  O  3 XZ    0.000015  -0.045773  -0.000012  -0.000005  -0.000098
   45  O  3 YZ   -0.000013   0.038055  -0.000024  -0.000034  -0.000136
   46  H  4  S    0.039564   0.000118   0.160952  -0.010090   0.711265
   47  H  4  S   -0.359827  -0.000028   0.161988   0.021936  -0.339553
   48  H  5  S   -0.332703  -0.000012  -0.439096  -0.117861  -0.454778
   49  H  5  S   -0.024585   0.000119  -0.201888   0.135571   0.088188
   50  F  6  S    0.006721  -0.000001   0.007396  -0.001352   0.003238
   51  F  6  S    0.020180  -0.000009   0.035106  -0.058066  -0.023706
   52  F  6  X   -0.131215  -0.000026  -0.145620   0.099787  -0.018309
   53  F  6  Y   -0.138391  -0.000030   0.179950   0.202393  -0.010390
   54  F  6  Z   -0.000000   0.036849  -0.000037   0.000003  -0.000038
   55  F  6  S   -0.404604  -0.000042  -0.037434   0.548681  -0.150467
   56  F  6  X    0.058598  -0.000005  -0.094743  -0.133244   0.110524
   57  F  6  Y    0.103816   0.000030   0.072857  -0.077530   0.036337
   58  F  6  Z   -0.000009   0.116173  -0.000029   0.000013   0.000013
   59  F  6 XX   -0.008116  -0.000000   0.009354   0.002794  -0.063190
   60  F  6 YY   -0.064908  -0.000034   0.072833   0.088970   0.022526
   61  F  6 ZZ    0.055022   0.000003   0.017361  -0.067117  -0.015416
   62  F  6 XY   -0.073108  -0.000013   0.035687   0.073198  -0.025913
   63  F  6 XZ    0.000001  -0.042254  -0.000000  -0.000006  -0.000006
   64  F  6 YZ    0.000013  -0.035218  -0.000002  -0.000019  -0.000015
   65  H  7  S   -0.312066  -0.000078  -0.456150   0.025632  -0.010673
   66  H  7  S   -0.073167  -0.000049  -0.570664  -0.251632   1.002364

                     31         32         33         34         35
                    1.0800     1.1277     1.2172     1.2308     1.2650
                     A          A          A          A          A   
    1  C  1  S   -0.002196   0.015112   0.000007  -0.020838   0.013187
    2  C  1  S   -0.117384  -0.695870   0.000200   0.240231   1.247442
    3  C  1  X   -0.476375  -0.263720  -0.000046   0.055052  -0.294464
    4  C  1  Y    0.452043   0.394742  -0.000095  -0.336527  -0.202838
    5  C  1  Z   -0.000151  -0.000067  -0.003070   0.000054  -0.000028
    6  C  1  S   -1.287764   1.636405  -0.001617  -1.378834  -4.513144
    7  C  1  X    2.055552   0.487323   0.000683   0.429706   1.827364
    8  C  1  Y   -2.307869  -0.520091   0.000720   0.036559  -0.108113
    9  C  1  Z    0.000560   0.000091   0.153086  -0.000093   0.000150
   10  C  1 XX   -0.166889  -0.043829  -0.000077  -0.053058  -0.055031
   11  C  1 YY   -0.001857   0.020852   0.000022  -0.088268   0.081107
   12  C  1 ZZ    0.010825  -0.088640  -0.000004   0.090225   0.096554
   13  C  1 XY   -0.038638  -0.133200  -0.000112  -0.028092  -0.013679
   14  C  1 XZ   -0.000006   0.000031   0.013671  -0.000019  -0.000065
   15  C  1 YZ   -0.000023  -0.000025   0.038813  -0.000012  -0.000015
   16  C  2  S   -0.010139  -0.004577   0.000020   0.016201  -0.024556
   17  C  2  S    0.090309  -0.687251  -0.000475  -0.386662  -1.143423
   18  C  2  X   -0.594252   0.398476  -0.000069  -0.026596  -0.244297
   19  C  2  Y   -0.638697   0.447495   0.000330   0.180966   0.113869
   20  C  2  Z    0.000053  -0.000103   0.123672  -0.000070  -0.000037
   21  C  2  S    1.226869   1.301184   0.002091   1.448706   4.727109
   22  C  2  X    2.371455  -0.841147   0.000865   0.750519   1.388289
   23  C  2  Y    2.704446  -1.221804  -0.000807   0.428548  -0.031355
   24  C  2  Z   -0.000022   0.000142  -0.550674   0.000532   0.000264
   25  C  2 XX    0.173146  -0.057152   0.000123   0.039639   0.071272
   26  C  2 YY   -0.070379  -0.055088   0.000091   0.075117  -0.211209
   27  C  2 ZZ    0.010844  -0.056997  -0.000123  -0.081116  -0.028558
   28  C  2 XY   -0.010732   0.137530  -0.000135  -0.008066  -0.015577
   29  C  2 XZ   -0.000035  -0.000045   0.030169  -0.000094   0.000094
   30  C  2 YZ   -0.000007   0.000019   0.029682  -0.000005  -0.000079
   31  O  3  S    0.019628   0.000238  -0.000018   0.001292   0.013903
   32  O  3  S   -0.006078   0.142787  -0.001268  -0.573863   0.417812
   33  O  3  X   -0.174490  -0.292899  -0.000227  -0.121631  -0.269231
   34  O  3  Y   -0.085859  -0.029714  -0.001128  -0.479478   0.138748
   35  O  3  Z    0.000301   0.000253  -0.951146   0.001270  -0.000295
   36  O  3  S   -0.615109  -0.188698   0.002703   0.916211  -1.234551
   37  O  3  X   -0.312606   0.493467  -0.000041  -0.210247   0.252644
   38  O  3  Y   -0.068053  -0.196152   0.001128   0.518012   0.111566
   39  O  3  Z   -0.000103  -0.000205   1.203699  -0.001460   0.000286
   40  O  3 XX   -0.068139   0.095485  -0.000391  -0.119166   0.014752
   41  O  3 YY    0.078294   0.059728  -0.000328  -0.192303   0.147405
   42  O  3 ZZ    0.012513   0.033658  -0.000552  -0.210035   0.261439
   43  O  3 XY    0.086974   0.025470   0.000192   0.080735  -0.015602
   44  O  3 XZ   -0.000063  -0.000048   0.001897  -0.000119   0.000040
   45  O  3 YZ   -0.000079  -0.000083   0.047775  -0.000201   0.000110
   46  H  4  S    0.366147   0.217305   0.001012   0.514352  -0.328877
   47  H  4  S   -0.352414   0.092939  -0.001437  -0.870849   0.350773
   48  H  5  S   -0.181948   0.359261   0.000218   0.557021  -0.072566
   49  H  5  S    2.122095  -1.587779  -0.000592  -0.211844  -0.337690
   50  F  6  S   -0.008459  -0.002279   0.000019   0.020416  -0.000511
   51  F  6  S    0.073665   0.113622   0.000402   0.522318   0.113045
   52  F  6  X    0.073785  -0.003213   0.000013   0.006518   0.028008
   53  F  6  Y    0.087394  -0.021203   0.000180   0.255786   0.080212
   54  F  6  Z   -0.000001  -0.000004  -0.085611   0.000003   0.000048
   55  F  6  S    0.318382  -0.237218  -0.000878  -0.887046   0.073459
   56  F  6  X   -0.273163  -0.107646  -0.000075  -0.125548  -0.203726
   57  F  6  Y   -0.110258   0.030127  -0.000179  -0.325126  -0.167699
   58  F  6  Z   -0.000033  -0.000012   0.059415   0.000004  -0.000036
   59  F  6 XX    0.128214   0.085911   0.000220   0.242146   0.124547
   60  F  6 YY   -0.002738  -0.001732   0.000159   0.266515   0.073212
   61  F  6 ZZ    0.008279   0.044398   0.000180   0.237045  -0.023135
   62  F  6 XY    0.050145   0.020303   0.000048   0.010644   0.017948
   63  F  6 XZ    0.000018  -0.000001  -0.007526  -0.000003   0.000020
   64  F  6 YZ    0.000007   0.000005  -0.010549   0.000007   0.000007
   65  H  7  S    0.181625   0.501231   0.000249  -0.444391  -0.193121
   66  H  7  S   -1.793739  -1.322935   0.000163   0.483166   0.392012

                     36         37         38         39         40
                    1.3032     1.4665     1.4966     1.5298     1.6296
                     A          A          A          A          A   
    1  C  1  S   -0.038044   0.009856  -0.004215  -0.000005  -0.000013
    2  C  1  S   -0.577297   0.290728  -0.264933  -0.000229   0.000067
    3  C  1  X    0.056371  -0.019625   0.089909   0.000044  -0.000161
    4  C  1  Y    0.052448   0.176792   0.161062   0.000173  -0.000166
    5  C  1  Z   -0.000033  -0.000055  -0.000125   0.059623  -0.105312
    6  C  1  S    3.029679  -1.077771   2.639334   0.003090  -0.000954
    7  C  1  X   -0.661494   0.689235  -1.195504  -0.001286   0.000279
    8  C  1  Y   -1.426704  -1.643541  -0.404371  -0.000721   0.001946
    9  C  1  Z    0.000159   0.000325  -0.000087  -0.361838  -0.154606
   10  C  1 XX    0.045205   0.012104   0.011798  -0.000022   0.000163
   11  C  1 YY   -0.228903   0.162780   0.024999   0.000065   0.000031
   12  C  1 ZZ    0.047921  -0.077822  -0.007626   0.000016  -0.000284
   13  C  1 XY    0.029038   0.124718   0.117284   0.000135  -0.000309
   14  C  1 XZ   -0.000043  -0.000032  -0.000559   0.149833  -0.485804
   15  C  1 YZ    0.000063   0.000002  -0.000153   0.246286   0.075716
   16  C  2  S    0.019590  -0.008859   0.027207   0.000032  -0.000024
   17  C  2  S    0.647920  -0.111353   0.322650   0.000327   0.000011
   18  C  2  X    0.212283  -0.027933   0.123837   0.000116   0.000022
   19  C  2  Y   -0.174157  -0.045201  -0.054425  -0.000111   0.000010
   20  C  2  Z    0.000083   0.000067  -0.000049  -0.001871  -0.084061
   21  C  2  S   -2.742423   0.248514  -1.237222  -0.001266  -0.001773
   22  C  2  X   -1.292871   1.120595  -2.337317  -0.002911   0.001230
   23  C  2  Y    1.327804   1.073236   0.816364   0.001307  -0.004066
   24  C  2  Z   -0.000563  -0.000294   0.000071   0.210131   0.074071
   25  C  2 XX   -0.017961   0.010347   0.009690   0.000017  -0.000012
   26  C  2 YY    0.027604   0.012098   0.045135   0.000007   0.000007
   27  C  2 ZZ    0.028732  -0.062106   0.030772   0.000062  -0.000112
   28  C  2 XY    0.107701   0.150200  -0.155309  -0.000176   0.000194
   29  C  2 XZ    0.000102   0.000046   0.000607  -0.183630   0.484724
   30  C  2 YZ   -0.000054  -0.000126  -0.000173   0.160164  -0.057787
   31  O  3  S    0.014405  -0.020080   0.019457   0.000024  -0.000144
   32  O  3  S    0.436437  -0.579814   0.257056   0.000469  -0.001839
   33  O  3  X   -0.284767  -0.143882  -0.420085  -0.000485   0.000014
   34  O  3  Y    0.298028   0.285705  -0.675553  -0.000678   0.000479
   35  O  3  Z   -0.000794  -0.000136   0.000319   0.072815   0.066732
   36  O  3  S   -1.301308   1.024811  -1.025458  -0.001715   0.006284
   37  O  3  X    0.431596   0.079766   0.706195   0.000873   0.001049
   38  O  3  Y   -0.308397  -0.694002   1.826575   0.002249  -0.001962
   39  O  3  Z    0.001101   0.000335  -0.000468  -0.207953   0.006078
   40  O  3 XX    0.159829  -0.097585  -0.074707  -0.000131  -0.000344
   41  O  3 YY    0.093074  -0.267470   0.148794   0.000201  -0.000708
   42  O  3 ZZ    0.191422  -0.107500   0.166877   0.000325  -0.000591
   43  O  3 XY   -0.051363   0.047851  -0.076140  -0.000212   0.000227
   44  O  3 XZ    0.000043  -0.000162   0.000175   0.057562  -0.020820
   45  O  3 YZ    0.000191   0.000004   0.000533  -0.159227   0.299748
   46  H  4  S   -0.329910   0.143284  -0.295399  -0.000650  -0.000046
   47  H  4  S    0.592748  -0.115377  -0.741776  -0.000684   0.000128
   48  H  5  S    0.348914   0.433048  -0.040208  -0.000040  -0.000556
   49  H  5  S    0.435014   0.444595  -0.068570   0.000004  -0.000921
   50  F  6  S    0.015711  -0.074751  -0.020860  -0.000020   0.000010
   51  F  6  S    0.455256  -0.925917  -0.382633  -0.000360   0.000080
   52  F  6  X    0.109492  -0.373484  -0.199447  -0.000140   0.000500
   53  F  6  Y    0.166886  -0.313021  -0.195349  -0.000339   0.000392
   54  F  6  Z   -0.000026  -0.000106   0.000751  -0.815069  -0.350716
   55  F  6  S   -0.634715   2.424027   0.792747   0.000805  -0.000610
   56  F  6  X   -0.231681   0.266471   0.308321   0.000244  -0.000655
   57  F  6  Y   -0.200731   0.369330   0.309476   0.000477  -0.000503
   58  F  6  Z    0.000017   0.000095  -0.000745   0.921618   0.501501
   59  F  6 XX    0.153811  -0.419646  -0.213025  -0.000190   0.000074
   60  F  6 YY    0.293636  -0.407830  -0.173915  -0.000165  -0.000003
   61  F  6 ZZ    0.206725  -0.559402  -0.157254  -0.000152   0.000086
   62  F  6 XY   -0.046452   0.021261   0.042451   0.000051  -0.000135
   63  F  6 XZ   -0.000004   0.000012  -0.000020  -0.060030  -0.014403
   64  F  6 YZ   -0.000010  -0.000010   0.000243  -0.075711   0.228098
   65  H  7  S   -0.639029  -0.384464  -0.067917  -0.000168   0.000349
   66  H  7  S   -0.534989  -0.614201  -0.079103  -0.000119   0.000459

                     41         42         43         44         45
                    1.7102     1.7163     1.7681     1.8496     2.0002
                     A          A          A          A          A   
    1  C  1  S   -0.000051   0.008701  -0.018747   0.000000  -0.024271
    2  C  1  S   -0.000423   0.154762  -0.105852  -0.000027  -0.087069
    3  C  1  X    0.000078  -0.131011  -0.111336   0.000086   0.062126
    4  C  1  Y   -0.000380   0.097179  -0.059680  -0.000002  -0.040704
    5  C  1  Z   -0.116447  -0.000347   0.000359  -0.156899   0.000129
    6  C  1  S    0.004546  -1.196095   1.288117  -0.000294   0.191427
    7  C  1  X   -0.005149   1.661405  -0.831464   0.000023  -0.135805
    8  C  1  Y    0.003744  -0.792596   0.999386   0.000000  -1.203276
    9  C  1  Z    0.159957   0.000708  -0.000504   0.094032  -0.000453
   10  C  1 XX   -0.000075   0.082110   0.075192  -0.000027   0.117714
   11  C  1 YY    0.000354  -0.079803   0.030754   0.000127   0.201457
   12  C  1 ZZ   -0.000292  -0.011826  -0.137838  -0.000130  -0.410105
   13  C  1 XY   -0.000554   0.092412  -0.131172  -0.000007  -0.136755
   14  C  1 XZ   -0.157410  -0.000436   0.001119   0.090290   0.000830
   15  C  1 YZ    0.441724   0.001221  -0.000860   0.484533  -0.000362
   16  C  2  S    0.000029  -0.010088   0.005702  -0.000015  -0.021628
   17  C  2  S    0.001058  -0.249696   0.289801  -0.000144  -0.134773
   18  C  2  X    0.000204  -0.035611   0.121967  -0.000011  -0.015466
   19  C  2  Y   -0.000405   0.100863  -0.042721   0.000045  -0.064950
   20  C  2  Z   -0.133132  -0.000335   0.000412   0.149378   0.000146
   21  C  2  S   -0.010225   2.157057  -2.831047   0.001043   0.964875
   22  C  2  X   -0.002859   0.895686  -0.835066  -0.000090  -0.671203
   23  C  2  Y   -0.005470   0.378715  -2.555525   0.000381   0.991500
   24  C  2  Z    0.025235   0.000124  -0.000053  -0.049644   0.000523
   25  C  2 XX   -0.000096   0.049364   0.036631   0.000003   0.064479
   26  C  2 YY    0.000034  -0.040550  -0.015726   0.000147   0.249460
   27  C  2 ZZ    0.000008  -0.034867  -0.087912  -0.000156  -0.388788
   28  C  2 XY    0.000337  -0.024436   0.093555  -0.000126   0.052545
   29  C  2 XZ    0.194826   0.000515  -0.000827   0.006219   0.000048
   30  C  2 YZ    0.558548   0.001454  -0.001087  -0.392508   0.000002
   31  O  3  S   -0.000214   0.001480  -0.109734   0.000033   0.020328
   32  O  3  S   -0.002423  -0.131447  -1.448561   0.000455   0.372894
   33  O  3  X   -0.000550   0.019507  -0.286264   0.000062  -0.027085
   34  O  3  Y    0.000473  -0.073877   0.065779  -0.000020  -0.092306
   35  O  3  Z   -0.006039   0.000083   0.000225   0.060938   0.000088
   36  O  3  S    0.008515   0.112549   4.653673  -0.001415  -1.396904
   37  O  3  X    0.003003  -0.151191   1.525555  -0.000413  -0.175149
   38  O  3  Y   -0.001812   0.228245  -0.387350   0.000259   0.646827
   39  O  3  Z   -0.099619  -0.000373  -0.000769   0.013802  -0.000261
   40  O  3 XX   -0.000731  -0.059348  -0.582219   0.000220   0.210254
   41  O  3 YY   -0.001049   0.014409  -0.491741   0.000143   0.203284
   42  O  3 ZZ   -0.000348  -0.046585  -0.129183  -0.000028  -0.225856
   43  O  3 XY   -0.000081   0.018067  -0.022329   0.000095  -0.013122
   44  O  3 XZ    0.311090   0.000697   0.000094  -0.305841   0.001702
   45  O  3 YZ   -0.106762  -0.000371   0.000452   0.286748   0.001393
   46  H  4  S   -0.001157   0.153939  -0.467416   0.000131  -0.014809
   47  H  4  S    0.000607  -0.440379  -0.402829   0.000072  -0.228817
   48  H  5  S   -0.000871   0.094621  -0.367485  -0.000068  -0.200849
   49  H  5  S   -0.001239   0.054092  -0.773317  -0.000047  -0.013414
   50  F  6  S   -0.000023  -0.000515  -0.021043   0.000003  -0.051748
   51  F  6  S   -0.000406   0.003303  -0.400839  -0.000039  -0.863212
   52  F  6  X   -0.001380   0.650383   0.244683  -0.000000   0.174888
   53  F  6  Y    0.001784  -0.541062   0.231117   0.000108   0.191759
   54  F  6  Z    0.279236   0.000885  -0.000117   0.064437  -0.000127
   55  F  6  S    0.000340   0.048603   0.597360   0.000048   2.092940
   56  F  6  X    0.002161  -1.009171  -0.337792   0.000055  -0.362991
   57  F  6  Y   -0.002608   0.803362  -0.333885  -0.000138  -0.392345
   58  F  6  Z   -0.426933  -0.001358   0.000199  -0.197173   0.000215
   59  F  6 XX    0.000363  -0.191883  -0.190440   0.000105   0.092848
   60  F  6 YY   -0.000945   0.245118  -0.263402  -0.000116  -0.340962
   61  F  6 ZZ    0.000104  -0.059824  -0.016740  -0.000010  -0.720184
   62  F  6 XY    0.000121  -0.096432  -0.079427   0.000011  -0.347756
   63  F  6 XZ   -0.226106  -0.000640   0.000385  -0.314297   0.000685
   64  F  6 YZ   -0.119009  -0.000372  -0.000180  -0.381238  -0.000522
   65  H  7  S    0.000447  -0.128739   0.094949   0.000063  -0.411280
   66  H  7  S    0.002123  -0.656916   0.313537   0.000030  -0.366958

                     46         47         48         49         50
                    2.0170     2.0607     2.1455     2.1698     2.2515
                     A          A          A          A          A   
    1  C  1  S    0.000065   0.005604   0.000013  -0.007962   0.028358
    2  C  1  S    0.000294  -0.213383   0.000142   0.203757   0.436132
    3  C  1  X   -0.000126   0.213200   0.000017  -0.295130  -0.141596
    4  C  1  Y    0.000175  -0.016725  -0.000039   0.153728  -0.021267
    5  C  1  Z    0.020547  -0.000016  -0.071538  -0.000055  -0.000017
    6  C  1  S   -0.001314  -0.655060  -0.000426  -0.437542  -0.844562
    7  C  1  X    0.002095  -0.766260   0.000230  -0.735642   0.133773
    8  C  1  Y    0.004130  -0.522156  -0.001337  -0.281576  -1.039822
    9  C  1  Z   -0.194256  -0.000078  -0.064655  -0.000106   0.000039
   10  C  1 XX   -0.000377   0.220477  -0.000184   0.239873  -0.100978
   11  C  1 YY   -0.000517  -0.349206   0.000250  -0.319338  -0.135197
   12  C  1 ZZ    0.001020   0.093895   0.000054  -0.005195   0.380288
   13  C  1 XY    0.000604  -0.126053  -0.000168   0.249559  -0.447654
   14  C  1 XZ    0.286574   0.000070  -0.051081  -0.000031   0.000147
   15  C  1 YZ   -0.077621   0.000105   0.098180   0.000100  -0.000069
   16  C  2  S    0.000016   0.007879   0.000013  -0.006778   0.026488
   17  C  2  S   -0.000343  -0.070352   0.000390  -0.423555   0.196964
   18  C  2  X   -0.000228  -0.022714   0.000247  -0.386192  -0.038849
   19  C  2  Y    0.000161   0.031585   0.000037  -0.034944  -0.086186
   20  C  2  Z    0.063367   0.000020  -0.052312  -0.000079   0.000096
   21  C  2  S    0.000478  -0.452510   0.000196   0.330192   0.255604
   22  C  2  X    0.003031   0.784593  -0.000359  -0.246500  -0.258031
   23  C  2  Y   -0.002756   0.816852   0.001056   0.418187   0.220659
   24  C  2  Z    0.181797   0.000037   0.118825   0.000109  -0.000002
   25  C  2 XX    0.000082   0.208245  -0.000326   0.029301  -0.135799
   26  C  2 YY   -0.000584  -0.439683   0.000136   0.055247  -0.059616
   27  C  2 ZZ    0.000714   0.176399   0.000273  -0.158580   0.362724
   28  C  2 XY   -0.000058  -0.012802  -0.000076  -0.001476   0.464811
   29  C  2 XZ    0.058970   0.000129   0.268858   0.000060  -0.000093
   30  C  2 YZ   -0.058918  -0.000090   0.137921   0.000185  -0.000148
   31  O  3  S   -0.000026  -0.001537   0.000029   0.015254  -0.005646
   32  O  3  S   -0.000766   0.112671   0.000336   0.102918   0.303141
   33  O  3  X    0.000072   0.242991   0.000014  -0.096119   0.076993
   34  O  3  Y    0.000254  -0.028755  -0.000077  -0.019319  -0.313453
   35  O  3  Z    0.031592  -0.000000   0.016292   0.000011  -0.000050
   36  O  3  S    0.002907  -0.192204  -0.001275  -0.592506  -0.516012
   37  O  3  X    0.000120  -0.423542  -0.000368   0.033240   0.007137
   38  O  3  Y   -0.001607  -0.176935   0.000139   0.300160   0.334507
   39  O  3  Z   -0.101211   0.000010  -0.026794  -0.000045   0.000081
   40  O  3 XX    0.000779  -0.531796  -0.000377   0.450263   0.345765
   41  O  3 YY   -0.000256   0.379661  -0.000118  -0.144422  -0.270551
   42  O  3 ZZ   -0.000767   0.235314   0.000702  -0.195273   0.094122
   43  O  3 XY    0.000752   0.107895  -0.000360  -0.056170  -0.005188
   44  O  3 XZ    0.665542   0.000652  -0.280506  -0.000460   0.000255
   45  O  3 YZ    0.595307   0.000541  -0.162250  -0.000352   0.000318
   46  H  4  S    0.000020   0.057694   0.000466  -0.069755   0.086496
   47  H  4  S    0.000738  -0.020087  -0.000120  -0.049492  -0.020078
   48  H  5  S    0.000211   0.538451   0.000180  -0.084361  -0.313857
   49  H  5  S    0.000033   0.407051   0.000236   0.005941   0.082682
   50  F  6  S    0.000240  -0.043511  -0.000047  -0.035603  -0.063092
   51  F  6  S    0.004160  -0.577826  -0.000955  -0.595043  -0.610547
   52  F  6  X   -0.000756  -0.149161   0.000304  -0.137035  -0.002728
   53  F  6  Y   -0.000886   0.052077   0.000061   0.261130  -0.180283
   54  F  6  Z   -0.050408  -0.000063  -0.016419  -0.000040  -0.000012
   55  F  6  S   -0.009848   1.594995   0.002271   1.474424   1.909096
   56  F  6  X    0.001583   0.075323  -0.000609   0.135820  -0.340440
   57  F  6  Y    0.002067  -0.409257  -0.000286  -0.515216  -0.164628
   58  F  6  Z    0.079339   0.000102   0.026755   0.000072   0.000035
   59  F  6 XX    0.000319  -0.204383  -0.000099  -0.796028  -0.211642
   60  F  6 YY    0.002003  -0.086871  -0.000860   0.123249  -0.396332
   61  F  6 ZZ    0.002183  -0.309140   0.000034   0.034982  -0.087530
   62  F  6 XY    0.001262  -0.337315   0.000062  -0.278729  -0.213717
   63  F  6 XZ    0.231184   0.000117   0.736395   0.000244  -0.000223
   64  F  6 YZ   -0.228971  -0.000238  -0.519311  -0.000198   0.000036
   65  H  7  S    0.001194   0.133202  -0.000400   0.502263  -0.292705
   66  H  7  S    0.000819   0.087348  -0.000333   0.026784  -0.186022

                     51         52         53         54         55
                    2.2879     2.3504     2.5867     2.5959     2.6582
                     A          A          A          A          A   
    1  C  1  S    0.024011  -0.007398   0.000225  -0.058607  -0.000057
    2  C  1  S    0.385026   0.045197   0.001607  -0.417381  -0.000507
    3  C  1  X   -0.051587   0.278744   0.000890  -0.180045  -0.000188
    4  C  1  Y    0.138379  -0.103744   0.000787  -0.212097  -0.000208
    5  C  1  Z   -0.000021   0.000053  -0.044973  -0.000436   0.207257
    6  C  1  S   -2.260855  -1.532988  -0.010163   2.340312   0.002952
    7  C  1  X    1.062474   0.955581   0.004440  -1.032932  -0.001120
    8  C  1  Y   -2.219718  -1.152032  -0.004063   0.874173   0.000976
    9  C  1  Z    0.000214   0.000312  -0.267511  -0.001570   0.289363
   10  C  1 XX   -0.227460   0.067262  -0.000307   0.102974  -0.000106
   11  C  1 YY    0.202949   0.116086  -0.002077   0.492191   0.000718
   12  C  1 ZZ    0.035022  -0.384244   0.002795  -0.717908  -0.000802
   13  C  1 XY    0.219595  -0.272187  -0.000640   0.134378   0.000300
   14  C  1 XZ    0.000212  -0.000205   0.648852   0.002878  -0.098696
   15  C  1 YZ   -0.000110   0.000066  -0.196915  -0.001579   0.640883
   16  C  2  S   -0.001950  -0.036148  -0.000251   0.051734   0.000095
   17  C  2  S   -0.022492  -0.351450  -0.001757   0.378535   0.000678
   18  C  2  X    0.190125  -0.008760   0.000830  -0.256335   0.000002
   19  C  2  Y    0.081921  -0.155297  -0.000812   0.201318   0.000312
   20  C  2  Z    0.000075  -0.000067   0.197515   0.000768   0.038609
   21  C  2  S    2.014311   2.246097   0.010156  -2.128983  -0.003302
   22  C  2  X    0.861586   1.145838   0.004466  -0.966027  -0.001426
   23  C  2  Y    2.243784   1.257683   0.003146  -0.490594  -0.001343
   24  C  2  Z    0.000044   0.000067   0.404301   0.001554  -0.071520
   25  C  2 XX   -0.211244   0.387788   0.000498  -0.110562   0.000151
   26  C  2 YY    0.058888  -0.049790   0.001124  -0.287305  -0.000948
   27  C  2 ZZ    0.261400  -0.365430  -0.002347   0.535350   0.001145
   28  C  2 XY   -0.330058   0.291442  -0.000892   0.204029   0.000126
   29  C  2 XZ    0.000042  -0.000085   0.367651   0.002116  -0.564766
   30  C  2 YZ   -0.000086   0.000052   0.637391   0.002179   0.179945
   31  O  3  S    0.045766   0.002929   0.000046  -0.000850  -0.000050
   32  O  3  S    0.434498   0.361670  -0.000869   0.349549  -0.000159
   33  O  3  X    0.004217   0.123493  -0.000563   0.154411   0.000115
   34  O  3  Y    0.110636  -0.058177   0.000960  -0.230222  -0.000336
   35  O  3  Z   -0.000084  -0.000058   0.083252   0.000280   0.014491
   36  O  3  S   -2.065852  -1.104938  -0.000759  -0.292466   0.001577
   37  O  3  X   -0.730001  -0.410668  -0.000272  -0.141825   0.000743
   38  O  3  Y    0.016744   0.226868  -0.000719   0.181697   0.000657
   39  O  3  Z    0.000483   0.000060  -0.318604  -0.000980  -0.129762
   40  O  3 XX   -0.019308  -0.085454  -0.000502   0.069924   0.000491
   41  O  3 YY    0.140889   0.369649   0.001038  -0.316109  -0.000372
   42  O  3 ZZ    0.130278  -0.143578  -0.000902   0.394968  -0.000218
   43  O  3 XY   -0.071351   0.166581  -0.000468   0.040273   0.000649
   44  O  3 XZ    0.001102  -0.000152  -0.510057  -0.001585  -0.177156
   45  O  3 YZ    0.000689  -0.000227   0.418520   0.001318   0.398351
   46  H  4  S    0.421250  -0.195198  -0.000113   0.207298  -0.000734
   47  H  4  S    0.047051   0.099357  -0.000048   0.006651  -0.000158
   48  H  5  S    0.563598  -0.112221  -0.000158   0.061231   0.000360
   49  H  5  S    0.671017   0.527835   0.000939  -0.148147  -0.000536
   50  F  6  S   -0.048165  -0.025658  -0.000139   0.033107   0.000042
   51  F  6  S   -1.226046  -0.138176  -0.000351   0.081719  -0.000182
   52  F  6  X    0.298660  -0.016587  -0.000313   0.070483   0.000202
   53  F  6  Y    0.232691  -0.065349  -0.001044   0.244691   0.000358
   54  F  6  Z   -0.000050   0.000020  -0.023319  -0.000289   0.152034
   55  F  6  S    2.952933   0.705054   0.003286  -0.760006  -0.000464
   56  F  6  X   -0.657500  -0.139041  -0.000844   0.206395   0.000011
   57  F  6  Y   -0.469837  -0.022597   0.000500  -0.124537  -0.000230
   58  F  6  Z    0.000072  -0.000047   0.048621   0.000640  -0.376874
   59  F  6 XX   -0.407765  -0.468498   0.000648  -0.172040  -0.000101
   60  F  6 YY   -0.792101  -0.259286  -0.001785   0.427016   0.000428
   61  F  6 ZZ    0.105275   0.501918   0.000488  -0.094540  -0.000263
   62  F  6 XY    0.010885   0.337054  -0.000118   0.050877   0.000095
   63  F  6 XZ   -0.000394   0.000031  -0.127591  -0.001110   0.492140
   64  F  6 YZ    0.000241   0.000087   0.157276  -0.000043   0.564325
   65  H  7  S   -0.149627  -0.492359   0.000423  -0.159583  -0.000070
   66  H  7  S   -0.772544  -0.387153  -0.001506   0.354845   0.000237

                     56         57         58         59         60
                    2.7169     2.8216     2.9809     3.0637     3.2057
                     A          A          A          A          A   
    1  C  1  S   -0.023594   0.037026   0.000045   0.051453  -0.033188
    2  C  1  S   -0.128034  -0.055631  -0.000136  -0.112483   0.369241
    3  C  1  X    0.200264  -0.007463   0.000332   0.424123  -0.410167
    4  C  1  Y    0.046066  -0.068764  -0.000024  -0.047799   0.183414
    5  C  1  Z   -0.000129  -0.000137  -0.029565   0.000070  -0.000075
    6  C  1  S    0.756358  -0.350785  -0.001101  -2.194729   1.570643
    7  C  1  X   -0.048925   0.178040   0.000598   1.159286  -0.718206
    8  C  1  Y   -0.101810   0.242306  -0.000077  -0.656172   0.025189
    9  C  1  Z   -0.000296  -0.000398   0.095881   0.000105  -0.000214
   10  C  1 XX    0.167209  -0.633866  -0.000760  -0.429824   0.672370
   11  C  1 YY   -0.287415   0.436991   0.000282   0.009050  -0.250325
   12  C  1 ZZ   -0.123421   0.327747   0.000509   0.430749  -0.358498
   13  C  1 XY    0.195507   0.133124   0.000343   0.581059  -0.155952
   14  C  1 XZ    0.000001  -0.000268   0.689935  -0.000475   0.000231
   15  C  1 YZ   -0.000580  -0.000788   0.466379  -0.000064  -0.000088
   16  C  2  S    0.007939   0.042084   0.000002  -0.075507   0.022043
   17  C  2  S    0.133323   0.132694   0.000307   0.534523   0.257727
   18  C  2  X    0.068707   0.479743   0.000401  -0.014467  -0.822792
   19  C  2  Y    0.076623  -0.086405   0.000146   0.574682   0.520805
   20  C  2  Z   -0.000037   0.000052   0.037472   0.000113   0.000044
   21  C  2  S   -0.667320  -0.624272   0.000774   3.301933  -0.685362
   22  C  2  X   -0.338825   0.032085   0.000443   0.886817  -1.181123
   23  C  2  Y   -0.702302  -0.542929  -0.000166   1.121281   0.421898
   24  C  2  Z    0.000173   0.000418  -0.099146   0.000268   0.000140
   25  C  2 XX    0.453756   0.042984   0.000422   0.560207  -0.768580
   26  C  2 YY   -0.787034   0.014305  -0.000041   0.176380   0.696364
   27  C  2 ZZ    0.261823   0.319287  -0.000103  -0.767746   0.109702
   28  C  2 XY   -0.139299   0.248840   0.000293   0.148933  -0.525606
   29  C  2 XZ    0.000364   0.000107   0.670080  -0.000281  -0.000050
   30  C  2 YZ    0.000131   0.000681  -0.458318   0.000331   0.000195
   31  O  3  S   -0.035784  -0.046153  -0.000029   0.048564   0.028228
   32  O  3  S   -0.371878  -0.423904  -0.000029   0.752708   0.237221
   33  O  3  X   -0.021891  -0.005455   0.000060   0.057583  -0.119995
   34  O  3  Y   -0.098664  -0.048686  -0.000127  -0.078022   0.056871
   35  O  3  Z    0.000036   0.000057  -0.012296   0.000004   0.000050
   36  O  3  S    1.372151   1.578957   0.000518  -2.405860  -1.059268
   37  O  3  X    0.749452   0.646400   0.000281  -0.925044  -0.179137
   38  O  3  Y    0.359984   0.133338   0.000455   0.947341   1.081859
   39  O  3  Z   -0.000493  -0.000864   0.220033   0.000119  -0.000241
   40  O  3 XX    0.560384  -0.088966   0.000043  -0.025253  -0.044534
   41  O  3 YY   -0.217715   0.547621   0.000356  -0.358061  -0.089552
   42  O  3 ZZ   -0.485980  -0.647286  -0.000455   0.604168   0.146008
   43  O  3 XY    0.208219   0.542387   0.000586   0.596474   1.036603
   44  O  3 XZ   -0.000751  -0.001162   0.237336   0.000162  -0.000261
   45  O  3 YZ   -0.000792  -0.000376  -0.465994   0.000152  -0.000527
   46  H  4  S   -0.673431  -1.000239  -0.000917   0.142450  -0.579994
   47  H  4  S   -0.119316   0.059957   0.000103  -0.082511  -0.075994
   48  H  5  S    0.280305  -0.050330  -0.000167  -0.286617   0.062243
   49  H  5  S   -0.425116  -0.023570   0.000075   0.376623  -0.086621
   50  F  6  S    0.004538   0.001364   0.000000   0.019216   0.010826
   51  F  6  S   -0.107070  -0.127346  -0.000137  -0.247024   0.252197
   52  F  6  X    0.117184   0.027184   0.000044   0.109715  -0.062814
   53  F  6  Y   -0.009181   0.122427   0.000082   0.063680  -0.103639
   54  F  6  Z   -0.000102  -0.000150   0.082541  -0.000042  -0.000006
   55  F  6  S    0.104124   0.138903   0.000243   0.416706  -0.525808
   56  F  6  X   -0.263986   0.022957  -0.000067  -0.253312   0.174782
   57  F  6  Y    0.100065  -0.173080  -0.000104  -0.018857   0.246466
   58  F  6  Z    0.000288   0.000438  -0.274027   0.000112   0.000028
   59  F  6 XX    0.403559  -0.249114  -0.000067   0.176846   0.123793
   60  F  6 YY   -0.389734   0.300422   0.000125  -0.133781  -0.119394
   61  F  6 ZZ   -0.031722  -0.144596  -0.000149   0.013903   0.186955
   62  F  6 XY    0.208017  -0.127475  -0.000086   0.008935  -0.079592
   63  F  6 XZ   -0.000347  -0.000423   0.218998  -0.000077  -0.000015
[...]
  6   F            X 0.004087 0.006418 0.000005-0.001320-0.001570-0.000001
                   Y-0.006308 0.025483 0.000012-0.006316 0.000598-0.000008
                   Z-0.000001-0.000003-0.007715 0.000001 0.000001-0.002173
  7   H            X-0.005405-0.001816-0.000004-0.000110-0.001030 0.000001
                   Y-0.002030 0.001384 0.000002-0.000678-0.000162-0.000000
                   Z 0.000003-0.000005 0.013820 0.000001-0.000003-0.000905

                                   5                          6
                               H                          F         
                          X        Y        Z        X        Y        Z
  5   H            X 0.174725 0.156035-0.000006-0.007081-0.000183-0.000000
                   Y 0.156035 0.314987-0.000011 0.002463 0.001932 0.000001
                   Z-0.000006-0.000011 0.031095-0.000001 0.000002 0.013889
  6   F            X-0.007081 0.002463-0.000001 0.192045 0.184868 0.000001
                   Y-0.000183 0.001932 0.000002 0.184868 0.343134-0.000010
                   Z-0.000000 0.000001 0.013889 0.000001-0.000010 0.023622
  7   H            X-0.000186-0.000545 0.000001 0.013928-0.029970 0.000004
                   Y 0.000837 0.000404-0.000001 0.006009-0.035351 0.000004
                   Z-0.000000-0.000000-0.004976 0.000002-0.000001 0.002582

                                   7
                               H         
                          X        Y        Z
  7   H            X 0.184687-0.163645 0.000034
                   Y-0.163645 0.310084-0.000046
                   Z 0.000034-0.000046 0.024270

          ------------------------          ----------------
          DIPOLE DERIVATIVE TENSOR          (DEBYE/ANGSTROM)
          ------------------------          ----------------

        ATOM                 MU-X           MU-Y           MU-Z
     C          D/DX     2.113961771    1.675318633    0.000221732
                D/DY     3.060916373    3.172512564    0.000091272
                D/DZ     0.000712261   -0.000004161   -0.650604382
     C          D/DX     3.743093259   -1.598281099    0.000414013
                D/DY    -3.127905300    3.568778772    0.000140502
                D/DZ    -0.001349914    0.000174251    0.194350477
     O          D/DX    -3.842195995    1.451603886   -0.000894544
                D/DY     3.768451191   -4.633726846   -0.000004553
                D/DZ     0.000929966   -0.000557915   -2.199499147
     H          D/DX     1.115453401   -0.338573402    0.000583086
                D/DY    -0.321677993    1.707734653   -0.000116479
                D/DZ    -0.000160094    0.000155451    1.861805444
     H          D/DX     0.200673411   -0.231511033   -0.000015840
                D/DY    -0.136915002   -0.140404755   -0.000025805
                D/DZ    -0.000021339    0.000115809    0.631587116
     F          D/DX    -3.393639145   -1.149849043   -0.000199679
                D/DY    -3.282206427   -3.548974625   -0.000141880
                D/DZ     0.000055030    0.000054390   -0.691568317
     H          D/DX     0.062449135    0.191342159   -0.000108697
                D/DY     0.039326075   -0.125963293    0.000056835
                D/DZ    -0.000217047    0.000086252    0.853912682

          --------------------------------------------------------
          NORMAL COORDINATE ANALYSIS IN THE HARMONIC APPROXIMATION
          --------------------------------------------------------

          ATOMIC WEIGHTS (AMU)

    1     C                12.00000
    2     C                12.00000
    3     O                15.99491
    4     H                 1.00782
    5     H                 1.00782
    6     F                18.99840
    7     H                 1.00782

 MODES 1 TO 6 ARE TAKEN AS ROTATIONS AND TRANSLATIONS.

 ANALYZING SYMMETRY OF NORMAL MODES...

     FREQUENCIES IN CM**-1, IR INTENSITIES IN DEBYE**2/AMU-ANGSTROM**2,
     REDUCED MASSES IN AMU.

                          1           2           3           4           5
       FREQUENCY:         0.55        0.17        0.08        0.02        3.58  
        SYMMETRY:         A           A           A           A           A   
    REDUCED MASS:      8.95649     8.44544     8.89881     8.85790     6.50092
    IR INTENSITY:      0.00360     0.00002     0.00001     0.00000     0.01149

  1   C            X  0.00107023 -0.00515361  0.09914050 -0.07730419  0.06639369
                   Y  0.00006547 -0.00287229  0.07585820  0.10073241  0.06163731
                   Z  0.10197891  0.11573120  0.00482794 -0.00028280 -0.00012811
  2   C            X  0.00108859 -0.00516931  0.09922320 -0.07730264  0.06270362
                   Y  0.00020501 -0.00334053  0.07873028  0.10077927 -0.06602322
                   Z -0.04198721  0.13818720  0.00704849 -0.00109897 -0.00031499
  3   O            X  0.00120057 -0.00556729  0.10166847 -0.07726329 -0.04602794
                   Y  0.00029528 -0.00360941  0.08037316  0.10080560 -0.13908409
                   Z -0.15011336  0.14940777  0.00844257 -0.00167116 -0.00057713
  4   H            X  0.00136253 -0.00585297  0.10333853 -0.07723621 -0.12037575
                   Y  0.00021637 -0.00340842  0.07913918  0.10078572 -0.08417110
                   Z -0.10645587  0.13859268  0.00757502 -0.00139471 -0.00060611
  5   H            X  0.00098167 -0.00484546  0.09724744 -0.07733417  0.15053078
                   Y  0.00027183 -0.00354771  0.07999695  0.10079968 -0.12232073
                   Z -0.08395040  0.14946898  0.00792534 -0.00137109 -0.00026753
  6   F            X  0.00119018 -0.00556140  0.10164952 -0.07726215 -0.04511335
                   Y -0.00000528 -0.00262198  0.07431365  0.10070656  0.13027604
                   Z  0.15206102  0.10191068  0.00376418  0.00004455 -0.00019248
  7   H            X  0.00096734 -0.00483756  0.09720464 -0.07733716  0.15240962
                   Y  0.00001070 -0.00265887  0.07454172  0.10070993  0.12012371
                   Z  0.18826022  0.10673966  0.00371368  0.00017406  0.00008024

 TRANS. SAYVETZ    X  0.07105780 -0.33423841  6.23784158 -4.79268089  0.13986672
                   Y  0.00837118 -0.19178977  4.78797005  6.24844097  0.11072408
                   Z  1.20560395  7.77081499  0.36843310 -0.04507676 -0.01900480
               TOTAL  1.20772520  7.78036402  7.87217046  7.87494994  0.17939817

   ROT. SAYVETZ    X -1.09060697 -0.06941919  0.00520928 -0.00445170 -0.00657634
                   Y-16.66881890  2.62277097  0.25820444 -0.09466282 -0.02115816
                   Z -0.02153367  0.07111259 -0.43630584 -0.00714160 19.39472258
               TOTAL 16.70447278  2.62465304  0.50701031  0.09503615 19.39473524

                          6           7           8           9          10
       FREQUENCY:         7.41      256.50      433.53      570.91      822.95  
        SYMMETRY:         A           A           A           A           A   
    REDUCED MASS:      3.36621     6.92593     1.11764     3.96082     4.44155
    IR INTENSITY:      0.04334     0.28899     3.60472     0.50851     0.55108

  1   C            X  0.00003998  0.00002686 -0.00001096  0.00000385  0.10964295
                   Y  0.00002262  0.05844529  0.00000224 -0.00000716 -0.09094807
                   Z -0.12093985 -0.00001581  0.05710595 -0.16145496 -0.00010149
  2   C            X  0.00003881 -0.00467694 -0.00001194 -0.00002693  0.12400946
                   Y -0.00003679  0.05568569  0.00003713  0.00000407  0.10628229
                   Z -0.12995512 -0.00002441 -0.02137864  0.16255927 -0.00001334
  3   O            X -0.00000655 -0.15194350 -0.00008077 -0.00003367 -0.06204732
                   Y -0.00009643 -0.04070141 -0.00006094 -0.00001562  0.02874359
                   Z  0.08423171  0.00001397 -0.04138088 -0.08697006  0.00000116
  4   H            X -0.00001570 -0.27188843  0.00065130  0.00036628 -0.28256064
                   Y  0.00006040  0.04783888  0.00031584 -0.00002152  0.19040855
                   Z  0.24359094 -0.00020936  0.92198540  0.21592104  0.00015159
  5   H            X  0.00008053  0.07817352 -0.00002689 -0.00002703  0.10542387
                   Y -0.00007050  0.00124129  0.00004937  0.00001166  0.12266176
                   Z -0.31790253 -0.00002987 -0.07676390  0.31532130  0.00025742
  6   F            X -0.00004578  0.14584322  0.00005178  0.00002589 -0.09136721
                   Y  0.00008517 -0.04022920  0.00000683  0.00001700 -0.04507487
                   Z  0.11737551  0.00002934 -0.04199285  0.05538081  0.00001546
  7   H            X  0.00011154 -0.08874385 -0.00004607 -0.00001788  0.10215573
                   Y  0.00004174 -0.00375876  0.00000427 -0.00002587 -0.10213320
                   Z -0.29031756 -0.00005938  0.17775179 -0.20808459  0.00064737

 TRANS. SAYVETZ    X  0.00014862 -0.00000478 -0.00000010  0.00000009 -0.00001076
                   Y -0.00006250 -0.00005801 -0.00000008 -0.00000001 -0.00000098
                   Z  0.19900359 -0.00000269  0.00002540  0.00000662 -0.00000104
               TOTAL  0.19900365  0.00005827  0.00002540  0.00000662  0.00001086

   ROT. SAYVETZ    X  9.30655920  0.00128983  0.00674808  0.00196104  0.00024728
                   Y -1.93400724 -0.00134316 -0.00173880  0.00079364 -0.00004415
                   Z  0.01195282 -0.00044806 -0.00000914 -0.00000676  0.00063051
               TOTAL  9.50539694  0.00191533  0.00696851  0.00211556  0.00067871

                         11          12          13          14          15
       FREQUENCY:       852.00     1035.71     1116.68     1215.27     1343.37  
        SYMMETRY:         A           A           A           A           A   
    REDUCED MASS:      1.26428     1.26072     5.03520     2.83613     1.16532
    IR INTENSITY:      0.69082     0.07376     1.95699     5.14372     1.77040

  1   C            X -0.00008389 -0.00001540 -0.05367607  0.05458859 -0.00969968
                   Y  0.00006581  0.00004352  0.16514903  0.09371429 -0.06071542
                   Z -0.11212562  0.05467278 -0.00002620 -0.00000954  0.00001006
  2   C            X -0.00009418  0.00001362  0.05035170  0.02007213  0.02524011
                   Y -0.00009303  0.00002411  0.07930739 -0.11943257  0.03443091
                   Z -0.05989352 -0.12274193  0.00005485 -0.00001972 -0.00004093
  3   O            X  0.00006261  0.00002739  0.07178299 -0.06974330 -0.04622160
                   Y -0.00002119 -0.00002749 -0.07239424  0.10862724  0.02737571
                   Z  0.03434987  0.00614138 -0.00001701  0.00001090  0.00003665
  4   H            X  0.00009201 -0.00006087 -0.02882054  0.19071114  0.39967207
                   Y -0.00009938  0.00009391 -0.00502774 -0.07641123 -0.28625972
                   Z -0.02269136  0.07144271  0.00006996  0.00005873 -0.00021863
  5   H            X -0.00008837  0.00003886  0.26617931  0.21438387  0.51366857
                   Y -0.00008504  0.00004774 -0.04937569 -0.24646664 -0.27942250
                   Z  0.32196329  0.80792304 -0.00019017  0.00003680  0.00006081
  6   F            X  0.00006978 -0.00002014 -0.05781598 -0.02575609  0.00160568
                   Y  0.00003642 -0.00002603 -0.09295726 -0.07168655  0.04101695
                   Z  0.02046680  0.00933431 -0.00000053  0.00000383 -0.00000319
  7   H            X -0.00019268 -0.00001175 -0.24713568  0.29833572 -0.39507028
                   Y  0.00015822 -0.00002001  0.04497517  0.25647144 -0.32903277
                   Z  0.81794271 -0.34231091  0.00005950  0.00000642  0.00000305

 TRANS. SAYVETZ    X -0.00000005  0.00000004  0.00000546  0.00000151  0.00000592
                   Y  0.00000001  0.00000000 -0.00000349  0.00000789 -0.00000188
                   Z -0.00001325 -0.00000473  0.00000054 -0.00000125 -0.00000070
               TOTAL  0.00001325  0.00000473  0.00000650  0.00000813  0.00000626

   ROT. SAYVETZ    X -0.00003267  0.00034307  0.00006271 -0.00021411  0.00002967
                   Y -0.00052551 -0.00069852 -0.00003900 -0.00001864 -0.00015680
                   Z -0.00000096  0.00000172 -0.00008886 -0.00003656 -0.00067019
               TOTAL  0.00052652  0.00077822  0.00011554  0.00021801  0.00068893

                         16          17          18          19          20
       FREQUENCY:      1472.50     1547.92     1945.20     3435.28     3474.65  
        SYMMETRY:         A           A           A           A           A   
    REDUCED MASS:      1.40689     1.38431     6.08554     1.09088     1.10279
    IR INTENSITY:      0.01313     1.57086     1.74699     0.07809     0.18852

  1   C            X  0.01535195 -0.09763388 -0.17995454 -0.01225563  0.05304825
                   Y -0.01731948 -0.08117628 -0.02910933  0.02260255 -0.06280705
                   Z  0.00000019 -0.00000437 -0.00001138 -0.00000365  0.00001182
  2   C            X -0.03126219 -0.04889987  0.19632706 -0.04566117 -0.02398562
                   Y  0.13142174  0.05329283 -0.04104433 -0.06460741 -0.02233424
                   Z -0.00004003  0.00001977  0.00000359  0.00000269 -0.00000004
  3   O            X -0.03171521  0.04258074 -0.03146591  0.00155129 -0.00004179
                   Y -0.05888386 -0.00407843  0.01768950  0.00117840  0.00092358
                   Z  0.00004283 -0.00002214  0.00001032 -0.00000119  0.00000004
  4   H            X  0.48544823 -0.23176545  0.08526394 -0.01510335 -0.00640106
                   Y -0.42492236  0.19304200 -0.06037589 -0.01011368  0.00087946
                   Z -0.00034719  0.00012949 -0.00004694  0.00001389 -0.00000090
  5   H            X -0.11104852  0.51177666 -0.10330911  0.48943267  0.17802784
                   Y  0.19292508 -0.30888327  0.19525343  0.75190836  0.26088477
                   Z  0.00002038  0.00001310  0.00001280 -0.00003057 -0.00001224
  6   F            X -0.00431838  0.01971904  0.01521771  0.00056416 -0.00029971
                   Y -0.02332939  0.01254162  0.01335990  0.00043493  0.00021647
                   Z  0.00000235  0.00000089 -0.00000050  0.00000008  0.00000001
  7   H            X  0.39979024  0.41723489  0.03562070  0.18002119 -0.51135819
                   Y  0.24771613  0.27615504  0.16783949 -0.26855265  0.73325987
                   Z  0.00007749  0.00000847 -0.00002877  0.00004606 -0.00012854

 TRANS. SAYVETZ    X  0.00000090  0.00000240  0.00000093  0.00000018 -0.00000061
                   Y  0.00000586  0.00000340  0.00000072 -0.00000193  0.00000002
                   Z  0.00000041 -0.00000018 -0.00000134  0.00000049 -0.00000057
               TOTAL  0.00000594  0.00000417  0.00000178  0.00000200  0.00000084

   ROT. SAYVETZ    X -0.00000873  0.00002068 -0.00002678 -0.00000021 -0.00001809
                   Y -0.00000393  0.00010675 -0.00007529  0.00000812 -0.00001025
                   Z -0.00043900 -0.00000735 -0.00000582  0.00003501  0.00001543
               TOTAL  0.00043911  0.00010898  0.00008012  0.00003593  0.00002589

                         21
       FREQUENCY:      4086.70  
        SYMMETRY:         A   
    REDUCED MASS:      1.06591
    IR INTENSITY:      1.88685

  1   C            X  0.00012392
                   Y  0.00125899
                   Z -0.00000020
  2   C            X -0.00204294
                   Y -0.00162978
                   Z  0.00000047
  3   O            X -0.03407683
                   Y -0.04968529
                   Z  0.00004546
  4   H            X  0.55986363
                   Y  0.78790440
                   Z -0.00073177
  5   H            X  0.00796445
                   Y  0.01457987
                   Z  0.00000091
  6   F            X -0.00021551
                   Y -0.00037332
                   Z  0.00000028
  7   H            X -0.00009446
                   Y -0.00249120
                   Z  0.00000015

 TRANS. SAYVETZ    X -0.00000215
                   Y -0.00000067
                   Z -0.00000077
               TOTAL  0.00000238

   ROT. SAYVETZ    X  0.00001692
                   Y -0.00001437
                   Z -0.00003019
               TOTAL  0.00003747

 REFERENCE ON SAYVETZ CONDITIONS - A. SAYVETZ, J.CHEM.PHYS., 7, 383-389(1939).

 NOTE - THE MODES J,K ARE ORTHONORMALIZED ACCORDING TO
 SUM ON I   M(I) * (X(I,J)*X(I,K) + Y(I,J)*Y(I,K) + Z(I,J)*Z(I,K)) = DELTA(J,K)

  MODE FREQ(CM**-1)  SYMMETRY  RED. MASS  IR INTENS.
     1       0.554    A        8.956494    0.003605
     2       0.169    A        8.445442    0.000016
     3       0.083    A        8.898813    0.000006
     4       0.017    A        8.857901    0.000000
     5       3.577    A        6.500919    0.011490
     6       7.407    A        3.366214    0.043340
     7     256.499    A        6.925934    0.288985
     8     433.532    A        1.117643    3.604717
     9     570.910    A        3.960823    0.508508
    10     822.951    A        4.441548    0.551077
    11     852.003    A        1.264280    0.690819
    12    1035.711    A        1.260716    0.073764
    13    1116.682    A        5.035199    1.956992
    14    1215.270    A        2.836130    5.143721
    15    1343.370    A        1.165322    1.770398
    16    1472.502    A        1.406891    0.013135
    17    1547.923    A        1.384312    1.570856
    18    1945.201    A        6.085545    1.746987
    19    3435.285    A        1.090877    0.078093
    20    3474.652    A        1.102794    0.188520
    21    4086.704    A        1.065914    1.886852

     -------------------------------
     THERMOCHEMISTRY AT T=  298.15 K
     -------------------------------

 USING IDEAL GAS, RIGID ROTOR, HARMONIC NORMAL MODE APPROXIMATIONS.
 P=  1.01325E+05 PASCAL.
 ALL FREQUENCIES ARE SCALED BY   1.00000
 THE MOMENTS OF INERTIA ARE (IN AMU*BOHR**2)
     87.80643   288.54492   376.35134
 THE ROTATIONAL SYMMETRY NUMBER IS  1.0
 THE ROTATIONAL CONSTANTS ARE (IN GHZ)
     20.53481     6.24890     4.79097
 THE HARMONIC ZERO POINT ENERGY IS (SCALED BY   1.000)
        0.053786 HARTREE/MOLECULE    11804.597112 CM**-1/MOLECULE 
       33.751071 KCAL/MOL              141.214480 KJ/MOL

               Q               LN Q
 ELEC.     1.00000E+00       0.000000
 TRANS.    1.91963E+07      16.770228
 ROT.      3.49549E+04      10.461814
 VIB.      1.80891E+00       0.592726
 TOT.      1.21379E+12      27.824768

              E         H         G         CV        CP        S
           KJ/MOL    KJ/MOL    KJ/MOL   J/MOL-K   J/MOL-K   J/MOL-K
 ELEC.      0.000     0.000     0.000     0.000     0.000     0.000
 TRANS.     3.718     6.197   -41.572    12.472    20.786   160.221
 ROT.       3.718     3.718   -25.934    12.472    12.472    99.455
 VIB.     144.259   144.259   139.745    27.259    27.259    15.141
 TOTAL    151.696   154.175    72.239    52.202    60.516   274.817
 VIB. THERMAL CORRECTION E(T)-E(0) = H(T)-H(0) =  3044.972 J/MOL

              E         H         G         CV        CP        S
         KCAL/MOL  KCAL/MOL  KCAL/MOL CAL/MOL-K CAL/MOL-K CAL/MOL-K
 ELEC.      0.000     0.000     0.000     0.000     0.000     0.000
 TRANS.     0.889     1.481    -9.936     2.981     4.968    38.294
 ROT.       0.889     0.889    -6.198     2.981     2.981    23.770
 VIB.      34.479    34.479    33.400     6.515     6.515     3.619
 TOTAL     36.256    36.849    17.265    12.477    14.464    65.683
 VIB. THERMAL CORRECTION E(T)-E(0) = H(T)-H(0) =   727.766 CAL/MOL
 ......END OF NORMAL COORDINATE ANALYSIS......
 STEP CPU TIME =     0.00 TOTAL CPU TIME =        8.9 (    0.1 MIN)
 TOTAL WALL CLOCK TIME=        9.0 SECONDS, CPU UTILIZATION IS  98.78%
               580000  WORDS OF DYNAMIC MEMORY USED
 EXECUTION OF GAMESS TERMINATED NORMALLY Fri Nov  3 17:29:16 2017
 DDI: 263640 bytes (0.3 MB / 0 MWords) used by master data server.

 ----------------------------------------
 CPU timing information for all processes
 ========================================
 0: 8.829 + 0.102 = 8.931
 ----------------------------------------
 ddikick.x: exited gracefully.
