
 Distributed Data Interface kickoff program.
 Initiating 1 compute processes on 1 nodes to run the following command:
 /usr/local/gamess-141205/gamess.00.x /home/webmodemo/webmo/guest/344657/input 

          ******************************************************
          *         GAMESS VERSION =  5 DEC 2014 (R1)          *
          *             FROM IOWA STATE UNIVERSITY             *
          * M.W.SCHMIDT, K.K.BALDRIDGE, J.A.BOATZ, S.T.ELBERT, *
          *   M.S.GORDON, J.H.JENSEN, S.KOSEKI, N.MATSUNAGA,   *
          *          K.A.NGUYEN, S.J.SU, T.L.WINDUS,           *
          *       TOGETHER WITH M.DUPUIS, J.A.MONTGOMERY       *
          *         J.COMPUT.CHEM.  14, 1347-1363(1993)        *
          **************** 64 BIT LINUX VERSION ****************

  SINCE 1993, STUDENTS AND POSTDOCS WORKING AT IOWA STATE UNIVERSITY
  AND ALSO IN THEIR VARIOUS JOBS AFTER LEAVING ISU HAVE MADE IMPORTANT
  CONTRIBUTIONS TO THE CODE:
     IVANA ADAMOVIC, CHRISTINE AIKENS, YURI ALEXEEV, POOJA ARORA,
     ANDREY ASADCHEV, ROB BELL, PRADIPTA BANDYOPADHYAY, JONATHAN BENTZ,
     BRETT BODE, KURT BRORSEN, CALEB CARLIN, GALINA CHABAN, WEI CHEN,
     CHEOL HO CHOI, PAUL DAY, ALBERT DEFUSCO, NUWAN DESILVA, TIM DUDLEY,
     DMITRI FEDOROV, GRAHAM FLETCHER, MARK FREITAG, KURT GLAESEMANN,
     DAN KEMP, GRANT MERRILL, NORIYUKI MINEZAWA, JONATHAN MULLIN,
     TAKESHI NAGATA, SEAN NEDD, HEATHER NETZLOFF, BOSILJKA NJEGIC, RYAN OLSON,
     MIKE PAK, SPENCER PRUITT, LUKE ROSKOP, JIM SHOEMAKER, LYUDMILA SLIPCHENKO,
     TONY SMITH, SAROM SOK, JIE SONG, TETSUYA TAKETSUGU, SIMON WEBB,
     PENG XU, SOOHAENG YOO, FEDERICO ZAHARIEV

  ADDITIONAL CODE HAS BEEN PROVIDED BY COLLABORATORS IN OTHER GROUPS:
     IOWA STATE UNIVERSITY:
          JOE IVANIC, AARON WEST, LAIMUTIS BYTAUTAS, KLAUS RUEDENBERG
     UNIVERSITY OF TOKYO: KIMIHIKO HIRAO, TAKAHITO NAKAJIMA,
          TAKAO TSUNEDA, MUNEAKI KAMIYA, SUSUMU YANAGISAWA,
          KIYOSHI YAGI, MAHITO CHIBA, SEIKEN TOKURA, NAOAKI KAWAKAMI
     UNIVERSITY OF AARHUS: FRANK JENSEN
     UNIVERSITY OF IOWA: VISVALDAS KAIRYS, HUI LI
     NATIONAL INST. OF STANDARDS AND TECHNOLOGY: WALT STEVENS, DAVID GARMER
     UNIVERSITY OF PISA: BENEDETTA MENNUCCI, JACOPO TOMASI
     UNIVERSITY OF MEMPHIS: HENRY KURTZ, PRAKASHAN KORAMBATH
     UNIVERSITY OF ALBERTA: TOBY ZENG, MARIUSZ KLOBUKOWSKI
     UNIVERSITY OF NEW ENGLAND: MARK SPACKMAN
     MIE UNIVERSITY: HIROAKI UMEDA
     NAT. INST. OF ADVANCED INDUSTRIAL SCIENCE AND TECHNOLOGY: KAZUO KITAURA
     MICHIGAN STATE UNIVERSITY:
          KAROL KOWALSKI, MARTA WLOCH, JEFFREY GOUR, JESSE LUTZ,
          WEI LI, PIOTR PIECUCH
     UNIVERSITY OF SILESIA: MONIKA MUSIAL, STANISLAW KUCHARSKI
     FACULTES UNIVERSITAIRES NOTRE-DAME DE LA PAIX:
          OLIVIER QUINET, BENOIT CHAMPAGNE
     UNIVERSITY OF CALIFORNIA - SANTA BARBARA: BERNARD KIRTMAN
     INSTITUTE FOR MOLECULAR SCIENCE:
          KAZUYA ISHIMURA, MICHIO KATOUDA, AND SHIGERU NAGASE
     UNIVERSITY OF NOTRE DAME: ANNA POMOGAEVA, DAN CHIPMAN
     KYUSHU UNIVERSITY:
          HARUYUKI NAKANO,
          FENG LONG GU, JACEK KORCHOWIEC, MARCIN MAKOWSKI, AND YURIKO AOKI,
          HIROTOSHI MORI AND EISAKU MIYOSHI
     PENNSYLVANIA STATE UNIVERSITY:
          TZVETELIN IORDANOV, CHET SWALINA, JONATHAN SKONE,
          SHARON HAMMES-SCHIFFER
     WASEDA UNIVERSITY:
          MASATO KOBAYASHI, TOMOKO AKAMA, TSUGUKI TOUMA,
          TAKESHI YOSHIKAWA, YASUHIRO IKABATA, HIROMI NAKAI
     NANJING UNIVERSITY: SHUHUA LI
     UNIVERSITY OF NEBRASKA:
          PEIFENG SU, DEJUN SI, NANDUN THELLAMUREGE, YALI WANG, HUI LI
     UNIVERSITY OF ZURICH: ROBERTO PEVERATI, KIM BALDRIDGE
     N. COPERNICUS UNIVERSITY AND JACKSON STATE UNIVERSITY:
          MARIA BARYSZ
     UNIVERSITY OF COPENHAGEN: CASPER STEINMANN
     TOKYO INSTITUTE OF TECHNOLOGY: HIROYA NAKATA
     NAGOYA UNIVERSITY: YOSHIO NISHIMOTO, STEPHAN IRLE

 EXECUTION OF GAMESS BEGUN Fri Nov  3 17:32:25 2017

            ECHO OF THE FIRST FEW INPUT CARDS -
 INPUT CARD> $CONTRL SCFTYP=RHF RUNTYP=SADPOINT                                             
 INPUT CARD>       ICHARG=0 MULT=1 COORD=ZMTMPC $END                                        
 INPUT CARD> $BASIS GBASIS=N31 NGAUSS=6 NDFUNC=1 $END                                       
 INPUT CARD> $STATPT HESS=CALC NSTEP=100 $END                                               
 INPUT CARD> $DATA                                                                          
 INPUT CARD>C2H3OF                                                                          
 INPUT CARD>C1 1                                                                            
 INPUT CARD>C 0.0000000 0 0.0000000 0 0.0000000 0 0 0 0                                     
 INPUT CARD>C 1.5073631 1 0.0000000 0 0.0000000 0 1 0 0                                     
 INPUT CARD>O 1.1826872 1 124.44648 1 0.0000000 0 2 1 0                                     
 INPUT CARD>H 1.0956853 1 113.80215 1 -179.99567 1 2 1 3                                    
 INPUT CARD>F 1.3509993 1 104.83903 1 130.26387 1 1 2 3                                     
 INPUT CARD>H 1.0853490 1 104.02229 1 -116.26159 1 1 2 3                                    
 INPUT CARD>H 1.4999998 1 70.000029 1 9.9999427 1 1 2 3                                     
 INPUT CARD> $END                                                                           
 INPUT CARD>                                                                                
    1000000 WORDS OF MEMORY AVAILABLE

     BASIS OPTIONS
     -------------
     GBASIS=N31          IGAUSS=       6      POLAR=POPN31  
     NDFUNC=       1     NFFUNC=       0     DIFFSP=       F
     NPFUNC=       0      DIFFS=       F     BASNAM=        


     RUN TITLE
     ---------
 C2H3OF                                                                          

 THE POINT GROUP OF THE MOLECULE IS C1      
 THE ORDER OF THE PRINCIPAL AXIS IS     1

 YOUR FULLY SUBSTITUTED Z-MATRIX IS
 C   
 C      1   1.5073631
 O      2   1.1826872  1  124.4465
 H      2   1.0956853  1  113.8021  3 -179.9957  0
 F      1   1.3509993  2  104.8390  3  130.2639  0
 H      1   1.0853490  2  104.0223  3 -116.2616  0
 H      1   1.4999998  2   70.0000  3    9.9999  0

 THE MOMENTS OF INERTIA ARE (AMU-ANGSTROM**2)
 IXX=    15.367   IYY=   108.051   IZZ=   112.295

 ATOM      ATOMIC                      COORDINATES (BOHR)
           CHARGE         X                   Y                   Z
 C           6.0    -1.0459145634        1.1679771933        0.1961295171
 C           6.0     1.2791650304       -0.4259778402        0.6051317722
 O           8.0     3.2461523395       -0.0726627243       -0.3954440781
 H           1.0     1.0000303663       -1.9839401200        1.9400452196
 F           9.0    -2.9091119763       -0.5071689770       -0.2940583057
 H           1.0    -1.4052874969        2.0035605966        2.0344174600
 H           1.0     0.9485586463        1.8593174245       -1.6956997173

          INTERNUCLEAR DISTANCES (ANGS.)
          ------------------------------

                1 C          2 C          3 O          4 H          5 F     

   1 C       0.0000000    1.5073631 *  2.3848807 *  2.1922068 *  1.3509993 *
   2 C       1.5073631 *  0.0000000    1.1826872 *  1.0956853 *  2.2672512 *
   3 O       2.3848807 *  1.1826872 *  0.0000000    1.9907586 *  3.2657720  
   4 H       2.1922068 *  1.0956853 *  1.9907586 *  0.0000000    2.5075110 *
   5 F       1.3509993 *  2.2672512 *  3.2657720    2.5075110 *  0.0000000  
   6 H       1.0853490 *  2.0598390 *  2.9864929 *  2.4647746 *  1.9790840 *
   7 H       1.4999998 *  1.7249637 *  1.7311578 *  2.7997387 *  2.5071209 *

                6 H          7 H     

   1 C       1.0853490 *  1.4999998 *
   2 C       2.0598390 *  1.7249637 *
   3 O       2.9864929 *  1.7311578 *
   4 H       2.4647746 *  2.7997387 *
   5 F       1.9790840 *  2.5071209 *
   6 H       0.0000000    2.3352953 *
   7 H       2.3352953 *  0.0000000  

  * ... LESS THAN  3.000


     ATOMIC BASIS SET
     ----------------
 THE CONTRACTED PRIMITIVE FUNCTIONS HAVE BEEN UNNORMALIZED
 THE CONTRACTED BASIS FUNCTIONS ARE NOW NORMALIZED TO UNITY

  SHELL TYPE  PRIMITIVE        EXPONENT          CONTRACTION COEFFICIENT(S)

 C         

      1   S       1          3047.5248800    0.001834737132
      1   S       2           457.3695180    0.014037322813
      1   S       3           103.9486850    0.068842622264
      1   S       4            29.2101553    0.232184443216
      1   S       5             9.2866630    0.467941348435
      1   S       6             3.1639270    0.362311985337

      2   L       7             7.8682723   -0.119332419775    0.068999066591
      2   L       8             1.8812885   -0.160854151696    0.316423960957
      2   L       9             0.5442493    1.143456437840    0.744308290898

      3   L      10             0.1687145    1.000000000000    1.000000000000

      4   D      11             0.8000000    1.000000000000

 C         

      5   S      12          3047.5248800    0.001834737132
      5   S      13           457.3695180    0.014037322813
      5   S      14           103.9486850    0.068842622264
      5   S      15            29.2101553    0.232184443216
      5   S      16             9.2866630    0.467941348435
      5   S      17             3.1639270    0.362311985337

      6   L      18             7.8682723   -0.119332419775    0.068999066591
      6   L      19             1.8812885   -0.160854151696    0.316423960957
      6   L      20             0.5442493    1.143456437840    0.744308290898

      7   L      21             0.1687145    1.000000000000    1.000000000000

      8   D      22             0.8000000    1.000000000000

 O         

      9   S      23          5484.6716600    0.001831074430
      9   S      24           825.2349460    0.013950172200
      9   S      25           188.0469580    0.068445078098
      9   S      26            52.9645000    0.232714335992
      9   S      27            16.8975704    0.470192897984
      9   S      28             5.7996353    0.358520852987

     10   L      29            15.5396162   -0.110777549525    0.070874268231
     10   L      30             3.5999336   -0.148026262701    0.339752839147
     10   L      31             1.0137618    1.130767015354    0.727158577316

     11   L      32             0.2700058    1.000000000000    1.000000000000

     12   D      33             0.8000000    1.000000000000

 H         

     13   S      34            18.7311370    0.033494604338
     13   S      35             2.8253944    0.234726953484
     13   S      36             0.6401217    0.813757326146

     14   S      37             0.1612778    1.000000000000

 F         

     15   S      38          7001.7130900    0.001819616901
     15   S      39          1051.3660900    0.013916079607
     15   S      40           239.2856900    0.068405324535
     15   S      41            67.3974453    0.233185760119
     15   S      42            21.5199573    0.471267439240
     15   S      43             7.4031013    0.356618546182

     16   L      44            20.8479528   -0.108506975109    0.071628724237
     16   L      45             4.8083083   -0.146451658147    0.345912102697
     16   L      46             1.3440699    1.128688581135    0.722469956367

     17   L      47             0.3581514    1.000000000000    1.000000000000

     18   D      48             0.8000000    1.000000000000

 H         

     19   S      49            18.7311370    0.033494604338
     19   S      50             2.8253944    0.234726953484
     19   S      51             0.6401217    0.813757326146

     20   S      52             0.1612778    1.000000000000

 H         

     21   S      53            18.7311370    0.033494604338
     21   S      54             2.8253944    0.234726953484
     21   S      55             0.6401217    0.813757326146

     22   S      56             0.1612778    1.000000000000

 TOTAL NUMBER OF BASIS SET SHELLS             =   22
 NUMBER OF CARTESIAN GAUSSIAN BASIS FUNCTIONS =   66
 NUMBER OF ELECTRONS                          =   32
 CHARGE OF MOLECULE                           =    0
 SPIN MULTIPLICITY                            =    1
 NUMBER OF OCCUPIED ORBITALS (ALPHA)          =   16
 NUMBER OF OCCUPIED ORBITALS (BETA )          =   16
 TOTAL NUMBER OF ATOMS                        =    7
 THE NUCLEAR REPULSION ENERGY IS      115.7830516865

     $CONTRL OPTIONS
     ---------------
 SCFTYP=RHF          RUNTYP=SADPOINT     EXETYP=RUN     
 MPLEVL=       0     CITYP =NONE         CCTYP =NONE         VBTYP =NONE    
 DFTTYP=NONE         TDDFT =NONE    
 MULT  =       1     ICHARG=       0     NZVAR =       0     COORD =ZMTMPC  
 PP    =NONE         RELWFN=NONE         LOCAL =NONE         NUMGRD=       F
 ISPHER=      -1     NOSYM =       0     MAXIT =      30     UNITS =ANGS    
 PLTORB=       F     MOLPLT=       F     AIMPAC=       F     FRIEND=        
 NPRINT=       7     IREST =       0     GEOM  =INPUT   
 NORMF =       0     NORMP =       0     ITOL  =      20     ICUT  =       9
 INTTYP=BEST         GRDTYP=BEST         QMTTOL= 1.0E-06

     $SYSTEM OPTIONS
     ---------------
  REPLICATED MEMORY=     1000000 WORDS (ON EVERY NODE).
 DISTRIBUTED MEMDDI=           0 MILLION WORDS IN AGGREGATE,
 MEMDDI DISTRIBUTED OVER   1 PROCESSORS IS           0 WORDS/PROCESSOR.
 TOTAL MEMORY REQUESTED ON EACH PROCESSOR=     1000000 WORDS.
 TIMLIM=      525600.00 MINUTES, OR     365.0 DAYS.
 PARALL= F  BALTYP=  DLB     KDIAG=    0  COREFL= F
 MXSEQ2=     300 MXSEQ3=     150  mem10=         0

          ----------------
          PROPERTIES INPUT
          ----------------

     MOMENTS            FIELD           POTENTIAL          DENSITY
 IEMOM =       1   IEFLD =       0   IEPOT =       0   IEDEN =       0
 WHERE =COMASS     WHERE =NUCLEI     WHERE =NUCLEI     WHERE =NUCLEI  
 OUTPUT=BOTH       OUTPUT=BOTH       OUTPUT=BOTH       OUTPUT=BOTH    
 IEMINT=       0   IEFINT=       0                     IEDINT=       0
                                                       MORB  =       0
          EXTRAPOLATION IN EFFECT
          SOSCF IN EFFECT
 ORBITAL PRINTING OPTION: NPREO=     1    66     2     1

     -------------------------------
     INTEGRAL TRANSFORMATION OPTIONS
     -------------------------------
     NWORD  =            0
     CUTOFF = 1.0E-09     MPTRAN =       0
     DIRTRF =       F     AOINTS =DUP     

          ----------------------
          INTEGRAL INPUT OPTIONS
          ----------------------
 NOPK  =       1 NORDER=       0 SCHWRZ=       T

   --- ENCODED Z MATRIX ---
 COORD  TYPE   I   J   K   L   M   N
    1      1    2   1
    2      1    3   2
    3      2    3   2   1
    4      1    4   2
    5      2    4   2   1
    6      3    4   2   1   3
    7      1    5   1
    8      2    5   1   2
    9      3    5   1   2   3
   10      1    6   1
   11      2    6   1   2
   12      3    6   1   2   3
   13      1    7   1
   14      2    7   1   2
   15      3    7   1   2   3

 THE DETERMINANT OF THE G MATRIX IS 10**(   -11)

     ------------------------------------------
     THE POINT GROUP IS C1 , NAXIS= 1, ORDER= 1
     ------------------------------------------

     DIMENSIONS OF THE SYMMETRY SUBSPACES ARE
 A   =   66

 ..... DONE SETTING UP THE RUN .....
 STEP CPU TIME =     0.01 TOTAL CPU TIME =        0.0 (    0.0 MIN)
 TOTAL WALL CLOCK TIME=        0.0 SECONDS, CPU UTILIZATION IS  50.00%


          -----------------------------
          STATIONARY POINT LOCATION RUN
          -----------------------------

 OBTAINING INITIAL HESSIAN, HESS=CALC    

     ---------------------------------
     HESSIAN MATRIX CONTROL PARAMETERS
     ---------------------------------
     METHOD=ANALYTIC   NVIB  =       2   VIBSIZ= 0.01000
     RDHESS=       F   PURIFY=       F   PRTIFC=       F
     VIBANL=       F   DECOMP=       F   PROJCT=       F
     SCLFAC= 1.00000   PRTSCN=       F   NPRT  =       0
     PULCOR=       F   NPUN  =       0   REDOVB=       T

     ------------------------------
     CPHF RESPONSE SOLUTION OPTIONS
     ------------------------------
     POLAR  =       F     NWORD  =       0
     CPHF   =AO      

          ********************
          1 ELECTRON INTEGRALS
          ********************
 ...... END OF ONE-ELECTRON INTEGRALS ......
 STEP CPU TIME =     0.00 TOTAL CPU TIME =        0.0 (    0.0 MIN)
 TOTAL WALL CLOCK TIME=        0.0 SECONDS, CPU UTILIZATION IS  50.00%

          -------------
          GUESS OPTIONS
          -------------
          GUESS =HUCKEL            NORB  =       0          NORDER=       0
          MIX   =       F          PRTMO =       F          PUNMO =       F
          TOLZ  = 1.0E-08          TOLE  = 1.0E-05
          SYMDEN=       F          PURIFY=       F

 INITIAL GUESS ORBITALS GENERATED BY HUCKEL   ROUTINE.
 HUCKEL GUESS REQUIRES     39109 WORDS.

 SYMMETRIES FOR INITIAL GUESS ORBITALS FOLLOW.   BOTH SET(S).
    16 ORBITALS ARE OCCUPIED (    4 CORE ORBITALS).
     5=A        6=A        7=A        8=A        9=A       10=A       11=A   
    12=A       13=A       14=A       15=A       16=A       17=A       18=A   
    19=A       20=A       21=A       22=A       23=A       24=A       25=A   
    26=A   
 ...... END OF INITIAL ORBITAL SELECTION ......
 STEP CPU TIME =     0.01 TOTAL CPU TIME =        0.0 (    0.0 MIN)
 TOTAL WALL CLOCK TIME=        0.0 SECONDS, CPU UTILIZATION IS 100.00%

                    ----------------------
                    AO INTEGRAL TECHNOLOGY
                    ----------------------
     S,P,L SHELL ROTATED AXIS INTEGRALS, REPROGRAMMED BY
        KAZUYA ISHIMURA (IMS) AND JOSE SIERRA (SYNSTAR).
     S,P,D,L SHELL ROTATED AXIS INTEGRALS PROGRAMMED BY
        KAZUYA ISHIMURA (INSTITUTE FOR MOLECULAR SCIENCE).
     S,P,D,F,G SHELL TO TOTAL QUARTET ANGULAR MOMENTUM SUM 5,
        ERIC PROGRAM BY GRAHAM FLETCHER (ELORET AND NASA ADVANCED
        SUPERCOMPUTING DIVISION, AMES RESEARCH CENTER).
     S,P,D,F,G,L SHELL GENERAL RYS QUADRATURE PROGRAMMED BY
        MICHEL DUPUIS (PACIFIC NORTHWEST NATIONAL LABORATORY).

          --------------------
          2 ELECTRON INTEGRALS
          --------------------

 THE -PK- OPTION IS OFF, THE INTEGRALS ARE NOT IN SUPERMATRIX FORM.
 STORING   15000 INTEGRALS/RECORD ON DISK, USING 12 BYTES/INTEGRAL.
 TWO ELECTRON INTEGRAL EVALUATION REQUIRES   90649 WORDS OF MEMORY.
 SCHWARZ INEQUALITY OVERHEAD:      2204 INTEGRALS, T=        0.00
 II,JST,KST,LST =  1  1  1  1 NREC =         1 INTLOC =    1
 II,JST,KST,LST =  2  1  1  1 NREC =         1 INTLOC =    2
 II,JST,KST,LST =  3  1  1  1 NREC =         1 INTLOC =   34
 II,JST,KST,LST =  4  1  1  1 NREC =         1 INTLOC =  214
 II,JST,KST,LST =  5  1  1  1 NREC =         1 INTLOC = 1189
 II,JST,KST,LST =  6  1  1  1 NREC =         1 INTLOC = 3238
 II,JST,KST,LST =  7  1  1  1 NREC =         2 INTLOC =  989
 II,JST,KST,LST =  8  1  1  1 NREC =         3 INTLOC = 8248
 II,JST,KST,LST =  9  1  1  1 NREC =         7 INTLOC = 6189
 II,JST,KST,LST = 10  1  1  1 NREC =         8 INTLOC = 5195
 II,JST,KST,LST = 11  1  1  1 NREC =        13 INTLOC = 4330
 II,JST,KST,LST = 12  1  1  1 NREC =        20 INTLOC = 3926
 II,JST,KST,LST = 13  1  1  1 NREC =        35 INTLOC = 3273
 II,JST,KST,LST = 14  1  1  1 NREC =        38 INTLOC = 6709
 II,JST,KST,LST = 15  1  1  1 NREC =        41 INTLOC =13550
 II,JST,KST,LST = 16  1  1  1 NREC =        44 INTLOC = 5081
 II,JST,KST,LST = 17  1  1  1 NREC =        57 INTLOC = 3279
 II,JST,KST,LST = 18  1  1  1 NREC =        77 INTLOC = 6380
 II,JST,KST,LST = 19  1  1  1 NREC =       113 INTLOC = 3610
 II,JST,KST,LST = 20  1  1  1 NREC =       120 INTLOC =13047
 II,JST,KST,LST = 21  1  1  1 NREC =       129 INTLOC = 3486
 II,JST,KST,LST = 22  1  1  1 NREC =       137 INTLOC =12780
 SCHWARZ INEQUALITY TEST SKIPPED        2468 INTEGRAL BLOCKS.
 TOTAL NUMBER OF NONZERO TWO-ELECTRON INTEGRALS =             2191162
        147 INTEGRAL RECORDS WERE STORED ON DISK FILE  8.
  ...... END OF TWO-ELECTRON INTEGRALS .....
 STEP CPU TIME =     0.17 TOTAL CPU TIME =        0.2 (    0.0 MIN)
 TOTAL WALL CLOCK TIME=        0.2 SECONDS, CPU UTILIZATION IS  95.00%

          --------------------------
                 RHF SCF CALCULATION
          --------------------------

     NUCLEAR ENERGY =       115.7830516865
     MAXIT =   30     NPUNCH=    2
     EXTRAP=T  DAMP=F  SHIFT=F  RSTRCT=F  DIIS=F  DEM=F  SOSCF=T
     DENSITY MATRIX CONV=  1.00E-05
     SOSCF WILL OPTIMIZE     800 ORBITAL ROTATIONS, SOGTOL=   0.250
     MEMORY REQUIRED FOR RHF ITERS=     64616 WORDS.

 ITER EX DEM     TOTAL ENERGY        E CHANGE  DENSITY CHANGE     ORB. GRAD
   1  0  0     -250.8439432394  -250.8439432394   0.314131689   0.000000000
          ---------------START SECOND ORDER SCF---------------
   2  1  0     -251.5563084208    -0.7123651814   0.137636872   0.064255519
   3  2  0     -251.5936830282    -0.0373746074   0.068002297   0.044892391
   4  3  0     -251.6231916959    -0.0295086676   0.015196078   0.006609352
   5  4  0     -251.6241049535    -0.0009132576   0.010251021   0.002452076
   6  5  0     -251.6242847707    -0.0001798172   0.002020686   0.001146818
   7  6  0     -251.6243074971    -0.0000227264   0.000630208   0.000198891
   8  7  0     -251.6243093441    -0.0000018470   0.000278986   0.000074838
   9  8  0     -251.6243096172    -0.0000002731   0.000096871   0.000036088
  10  9  0     -251.6243096563    -0.0000000391   0.000044896   0.000017048
  11 10  0     -251.6243096645    -0.0000000082   0.000018031   0.000005549
  12 11  0     -251.6243096656    -0.0000000011   0.000006963   0.000002136
  13 12  0     -251.6243096658    -0.0000000002   0.000003005   0.000000845

          -----------------
          DENSITY CONVERGED
          -----------------
     TIME TO FORM FOCK OPERATORS=       0.4 SECONDS (       0.0 SEC/ITER)
     TIME TO SOLVE SCF EQUATIONS=       0.0 SECONDS (       0.0 SEC/ITER)

 FINAL RHF ENERGY IS     -251.6243096658 AFTER  13 ITERATIONS

          ------------
          EIGENVECTORS
          ------------

                      1          2          3          4          5
                  -26.3156   -20.6047   -11.3501   -11.3483    -1.6287
                     A          A          A          A          A   
    1  C  1  S   -0.000028  -0.000003   0.189760   0.977734  -0.056907
    2  C  1  S    0.000222  -0.000011   0.005336   0.026147   0.100926
    3  C  1  X   -0.000426  -0.000033  -0.000195  -0.000991  -0.063144
    4  C  1  Y   -0.000388  -0.000012  -0.000168  -0.001454  -0.062872
    5  C  1  Z   -0.000127   0.000022   0.000010  -0.000007  -0.013508
    6  C  1  S    0.000480  -0.000069  -0.000500  -0.012796   0.020748
    7  C  1  X    0.000258   0.000010   0.000228  -0.001859  -0.004312
    8  C  1  Y   -0.000118   0.000063  -0.000414   0.001781   0.004711
    9  C  1  Z    0.000111  -0.000080   0.000194  -0.001511  -0.003659
   10  C  1 XX    0.000134  -0.000056  -0.000605  -0.001018   0.008408
   11  C  1 YY    0.000093   0.000028  -0.000527  -0.001177   0.005634
   12  C  1 ZZ   -0.000079  -0.000016  -0.000350  -0.001466  -0.006939
   13  C  1 XY    0.000166  -0.000015   0.000247   0.000352   0.018007
   14  C  1 XZ    0.000066   0.000020   0.000010   0.000119   0.004338
   15  C  1 YZ    0.000059  -0.000028   0.000075   0.000232   0.005147
   16  C  2  S    0.000004  -0.000008   0.977391  -0.190003  -0.011259
   17  C  2  S    0.000089   0.000351   0.026789  -0.005246   0.019995
   18  C  2  X    0.000012  -0.000188   0.000936  -0.000289  -0.012561
   19  C  2  Y   -0.000008  -0.000043   0.000255   0.000018   0.006031
   20  C  2  Z    0.000008   0.000110  -0.000633   0.000128  -0.004588
   21  C  2  S   -0.000420  -0.000423  -0.006123   0.005433   0.017894
   22  C  2  X    0.000233  -0.000618   0.001939  -0.003167  -0.011088
   23  C  2  Y   -0.000172  -0.000080   0.000533   0.000938   0.002790
   24  C  2  Z    0.000108   0.000285  -0.001020   0.000372  -0.001885
   25  C  2 XX   -0.000104  -0.000692  -0.001160  -0.000207   0.004695
   26  C  2 YY   -0.000012  -0.000052  -0.002236   0.000223   0.000105
   27  C  2 ZZ   -0.000014  -0.000197  -0.002175   0.000237  -0.000614
   28  C  2 XY    0.000007  -0.000133   0.000065   0.000129  -0.002382
   29  C  2 XZ   -0.000004   0.000391  -0.000702   0.000084   0.000122
   30  C  2 YZ    0.000012   0.000091  -0.000421   0.000090  -0.001070
   31  O  3  S   -0.000003   0.994665  -0.000403   0.000053  -0.004762
   32  O  3  S   -0.000013   0.021030   0.000524  -0.000290   0.010664
   33  O  3  X   -0.000005  -0.001467  -0.000247   0.000048  -0.004619
   34  O  3  Y   -0.000005  -0.000180  -0.000034   0.000020  -0.000085
   35  O  3  Z    0.000017   0.000720   0.000125  -0.000057   0.000895
   36  O  3  S    0.000098   0.004903  -0.002622   0.001486   0.008641
   37  O  3  X   -0.000087  -0.000127   0.001622  -0.000407   0.000312
   38  O  3  Y    0.000033  -0.000042   0.000220  -0.000443  -0.001107
   39  O  3  Z   -0.000021   0.000059  -0.000774   0.000629   0.001412
   40  O  3 XX    0.000013  -0.003621  -0.000049  -0.000020   0.000063
   41  O  3 YY   -0.000018  -0.004081   0.000169  -0.000115  -0.000011
   42  O  3 ZZ   -0.000006  -0.004043   0.000177  -0.000113   0.000113
   43  O  3 XY    0.000002   0.000014   0.000006   0.000030  -0.000030
   44  O  3 XZ   -0.000013  -0.000271   0.000148  -0.000138   0.000063
   45  O  3 YZ   -0.000001  -0.000189   0.000162  -0.000083   0.000172
   46  H  4  S    0.000037  -0.000021  -0.000113  -0.000219   0.002760
   47  H  4  S   -0.000110  -0.000136   0.002191  -0.000486   0.002043
   48  F  5  S    0.994426   0.000005  -0.000085  -0.000152  -0.220222
   49  F  5  S    0.017804   0.000035  -0.000344   0.000104   0.514439
   50  F  5  X    0.000693   0.000010  -0.000050   0.000223   0.051088
   51  F  5  Y    0.000618  -0.000004   0.000073   0.000206   0.041798
   52  F  5  Z    0.000175   0.000001   0.000014   0.000032   0.015046
   53  F  5  S    0.008037  -0.000099   0.001117   0.000978   0.431184
   54  F  5  X   -0.000496  -0.000043   0.000231  -0.000817   0.032263
   55  F  5  Y   -0.000433   0.000027  -0.000259  -0.000864   0.024650
   56  F  5  Z   -0.000136  -0.000003  -0.000042  -0.000071   0.010731
   57  F  5 XX   -0.004798   0.000006  -0.000200  -0.000624   0.031467
   58  F  5 YY   -0.004749   0.000038  -0.000347  -0.000510   0.028584
   59  F  5 ZZ   -0.004552   0.000026  -0.000285   0.000147   0.022310
   60  F  5 XY   -0.000295   0.000011  -0.000165  -0.000675   0.009045
   61  F  5 XZ   -0.000078  -0.000013   0.000018  -0.000198   0.003077
   62  F  5 YZ   -0.000067   0.000010  -0.000055  -0.000176   0.002717
   63  H  6  S   -0.000040   0.000015  -0.000099   0.000139   0.016360
   64  H  6  S   -0.000114  -0.000023   0.000742   0.002422   0.002188
   65  H  7  S    0.000012   0.000004   0.000091   0.000148   0.004947
   66  H  7  S   -0.000054  -0.000109   0.000548   0.001083   0.000405

                      6          7          8          9         10
                   -1.4519    -1.0172    -0.8216    -0.7595    -0.7261
                     A          A          A          A          A   
    1  C  1  S   -0.012392  -0.152549   0.075381  -0.005865   0.009103
    2  C  1  S    0.023236   0.298318  -0.149986   0.018877  -0.009571
    3  C  1  X    0.029612   0.091631   0.122406  -0.207973  -0.123973
    4  C  1  Y   -0.008303  -0.055189  -0.064538   0.035201  -0.187126
    5  C  1  Z    0.001169   0.069393  -0.009423   0.151717  -0.188179
    6  C  1  S    0.011335   0.269350  -0.170384  -0.012907  -0.092917
    7  C  1  X    0.007535   0.048727   0.012863  -0.078444  -0.017572
    8  C  1  Y    0.001047  -0.005997  -0.026006   0.018857  -0.041599
    9  C  1  Z   -0.003969   0.016963  -0.010909   0.087222  -0.084454
   10  C  1 XX    0.005454   0.006557  -0.002790  -0.002630   0.002489
   11  C  1 YY    0.000491   0.000759   0.006497  -0.000507   0.016967
   12  C  1 ZZ   -0.000356   0.005456  -0.006611   0.005792  -0.018251
   13  C  1 XY   -0.005582  -0.010428  -0.015389   0.013064   0.021587
   14  C  1 XZ   -0.000340  -0.002844   0.005505   0.000093   0.012316
   15  C  1 YZ   -0.000248   0.003307  -0.009644   0.003512   0.003606
   16  C  2  S   -0.115585  -0.092333  -0.121027   0.001641   0.007644
   17  C  2  S    0.215531   0.193658   0.253855   0.000406  -0.017750
   18  C  2  X    0.157238  -0.186571  -0.006392   0.081096  -0.008572
   19  C  2  Y    0.034835   0.060422  -0.141723  -0.191923  -0.126502
   20  C  2  Z   -0.084950   0.026528   0.107245   0.164758   0.004028
   21  C  2  S    0.063807   0.128988   0.256060   0.011964   0.023958
   22  C  2  X   -0.016589  -0.033502  -0.045558   0.022843  -0.011993
   23  C  2  Y   -0.005320   0.003687  -0.047395  -0.073258  -0.053425
   24  C  2  Z    0.010755   0.014276   0.051051   0.072656  -0.004195
   25  C  2 XX    0.019948   0.002486  -0.003992   0.006387   0.003976
   26  C  2 YY   -0.015341   0.009451   0.005528   0.002285  -0.004278
   27  C  2 ZZ   -0.006515  -0.001015   0.000908  -0.001561   0.003901
   28  C  2 XY    0.008701  -0.014402   0.001708   0.000100  -0.001126
   29  C  2 XZ   -0.023307   0.005697  -0.002747  -0.003046   0.003372
   30  C  2 YZ   -0.006066  -0.009920  -0.014665   0.002404  -0.000764
   31  O  3  S   -0.195443   0.060380   0.064750  -0.018975  -0.012940
   32  O  3  S    0.429400  -0.138894  -0.149304   0.047955   0.033390
   33  O  3  X   -0.130906  -0.043636  -0.117829   0.142123   0.071693
   34  O  3  Y   -0.017530   0.024918  -0.109282  -0.160180  -0.106795
   35  O  3  Z    0.060464  -0.001342   0.127567   0.116916  -0.020770
   36  O  3  S    0.381077  -0.156025  -0.212245   0.067860   0.042458
   37  O  3  X   -0.050685  -0.023392  -0.056825   0.083664   0.046320
   38  O  3  Y   -0.001231   0.009158  -0.058130  -0.091782  -0.064301
   39  O  3  Z    0.018086  -0.000340   0.066558   0.066383  -0.012473
   40  O  3 XX    0.015403   0.002142   0.002838  -0.013724  -0.004374
   41  O  3 YY   -0.002655  -0.002179  -0.002333   0.004366   0.003841
   42  O  3 ZZ    0.000731  -0.001879   0.002850   0.009561   0.000941
   43  O  3 XY    0.001505  -0.001802   0.009918   0.010776   0.008222
   44  O  3 XZ   -0.008695   0.000061  -0.009570  -0.004723   0.003968
   45  O  3 YZ   -0.001959   0.002018  -0.002463  -0.003748  -0.003086
   46  H  4  S    0.025965   0.063773   0.185282   0.113661   0.039884
   47  H  4  S   -0.008592   0.009300   0.080136   0.051459   0.015481
   48  F  5  S    0.012520   0.060669  -0.027651   0.016424   0.029410
   49  F  5  S   -0.027498  -0.128829   0.058118  -0.033595  -0.064046
   50  F  5  X    0.003417   0.150110  -0.064551  -0.029054   0.444251
   51  F  5  Y   -0.000916   0.081853  -0.241922   0.205532   0.141773
   52  F  5  Z   -0.000145   0.052164  -0.045161   0.269464  -0.163409
   53  F  5  S   -0.031090  -0.209854   0.108565  -0.068132  -0.111116
   54  F  5  X   -0.001254   0.082313  -0.042706  -0.017315   0.308894
   55  F  5  Y    0.000802   0.049218  -0.155978   0.137211   0.097938
   56  F  5  Z   -0.000083   0.030088  -0.028604   0.175431  -0.109022
   57  F  5 XX   -0.000708   0.010542  -0.001633  -0.004285   0.020847
   58  F  5 YY   -0.000539   0.004044  -0.011636   0.009415   0.002164
   59  F  5 ZZ   -0.000460  -0.001107   0.001538   0.003639  -0.008438
   60  F  5 XY    0.000171   0.009689  -0.012114   0.006633   0.016838
   61  F  5 XZ   -0.000167   0.004752  -0.002148   0.008851  -0.001651
   62  F  5 YZ    0.000202   0.003346  -0.004233   0.009548  -0.003701
   63  H  6  S    0.003968   0.115229  -0.090422   0.100595  -0.130823
   64  H  6  S   -0.000451   0.024646  -0.042270   0.048978  -0.072580
   65  H  7  S    0.019951   0.057095  -0.038117  -0.100943  -0.026597
   66  H  7  S    0.001641   0.009505  -0.034778  -0.049355  -0.016879

                     11         12         13         14         15
                   -0.7040    -0.6639    -0.5985    -0.5612    -0.4590
                     A          A          A          A          A   
    1  C  1  S   -0.008759   0.024015  -0.030385   0.026596   0.047285
    2  C  1  S    0.017013  -0.046264   0.059329  -0.048346  -0.075069
    3  C  1  X   -0.081659  -0.070647  -0.066748   0.019888  -0.194317
    4  C  1  Y    0.077017  -0.104794   0.131696  -0.124360   0.018866
    5  C  1  Z   -0.087021  -0.014668   0.139636  -0.060956   0.200503
    6  C  1  S    0.022391  -0.088634   0.102861  -0.116846  -0.284865
    7  C  1  X   -0.029326  -0.022753   0.020203  -0.002949  -0.129445
    8  C  1  Y    0.044661  -0.035057   0.046034  -0.034587   0.013474
    9  C  1  Z   -0.064148   0.022003   0.045440  -0.014944   0.129438
   10  C  1 XX    0.012843   0.006247  -0.021824   0.012929  -0.012291
   11  C  1 YY   -0.013290   0.009748   0.001248  -0.000161   0.003734
   12  C  1 ZZ    0.001142  -0.014400   0.019129  -0.014190   0.010793
   13  C  1 XY    0.005194   0.014409   0.001580   0.006085   0.002905
   14  C  1 XZ    0.004435  -0.007530   0.000414   0.011300   0.010010
   15  C  1 YZ    0.006523  -0.006529   0.018307  -0.010045   0.012448
   16  C  2  S   -0.036544  -0.006983   0.029175  -0.015488  -0.008521
   17  C  2  S    0.089208   0.026062  -0.060415   0.030686   0.005112
   18  C  2  X    0.194152   0.161848   0.221695   0.003964   0.031826
   19  C  2  Y    0.002622   0.088926   0.078148   0.194402  -0.084423
   20  C  2  Z   -0.065387  -0.184405   0.018421   0.212127   0.043818
   21  C  2  S    0.042856  -0.062652  -0.122261   0.077380   0.065104
   22  C  2  X    0.049934   0.001853   0.067527   0.010017  -0.060525
   23  C  2  Y    0.010768   0.030313   0.009890   0.127131  -0.030782
   24  C  2  Z   -0.007209  -0.062108   0.029027   0.122146   0.033858
   25  C  2 XX    0.002952   0.008485   0.018749   0.011954  -0.023170
   26  C  2 YY   -0.005983  -0.015325  -0.011207   0.009705   0.004919
   27  C  2 ZZ   -0.001279  -0.002617  -0.018669  -0.019052   0.016369
   28  C  2 XY    0.004074   0.007951   0.004921   0.024182   0.027464
   29  C  2 XZ   -0.008322  -0.011397   0.000304   0.019310  -0.021693
   30  C  2 YZ   -0.002272   0.004720   0.015449  -0.010691  -0.012925
   31  O  3  S    0.058564   0.038663   0.007761  -0.001922  -0.005260
   32  O  3  S   -0.128515  -0.094916  -0.010546   0.000755   0.000273
   33  O  3  X   -0.279646  -0.335730  -0.039418   0.115513  -0.240138
   34  O  3  Y   -0.066556   0.001903  -0.067892   0.377505   0.351086
   35  O  3  Z    0.162085   0.061418   0.294686   0.271634  -0.279252
   36  O  3  S   -0.268850  -0.156429  -0.063889   0.018104   0.069769
   37  O  3  X   -0.144711  -0.198421  -0.002340   0.078580  -0.196251
   38  O  3  Y   -0.039206   0.002091  -0.039633   0.267116   0.277957
   39  O  3  Z    0.083300   0.034719   0.197372   0.195999  -0.219517
   40  O  3 XX    0.016697   0.020165  -0.002191  -0.016258   0.011239
   41  O  3 YY   -0.003222  -0.008928  -0.001282  -0.005496  -0.006787
   42  O  3 ZZ    0.002308  -0.007907   0.013810   0.016980  -0.014148
   43  O  3 XY    0.005348   0.001347   0.000419  -0.027810  -0.012378
   44  O  3 XZ   -0.012767  -0.007965  -0.018482  -0.018757   0.008009
   45  O  3 YZ   -0.001259   0.001020   0.000336   0.009118   0.006579
   46  H  4  S   -0.000017  -0.104980  -0.091861   0.017438   0.113874
   47  H  4  S   -0.013505  -0.058831  -0.078015   0.016928   0.108776
   48  F  5  S    0.004339   0.006141  -0.002537  -0.002550  -0.001216
   49  F  5  S   -0.003956  -0.012624  -0.003966  -0.000867   0.000182
   50  F  5  X   -0.178904   0.166159   0.255941   0.023964   0.107493
   51  F  5  Y    0.369431  -0.037383  -0.278117   0.123817   0.014064
   52  F  5  Z   -0.238690   0.424212  -0.214022   0.052317  -0.157907
   53  F  5  S   -0.028141  -0.024391   0.033270   0.026704   0.015310
   54  F  5  X   -0.129264   0.118614   0.197788   0.023625   0.095242
   55  F  5  Y    0.257840  -0.027479  -0.204728   0.096662   0.014240
   56  F  5  Z   -0.164452   0.305079  -0.162047   0.041895  -0.139517
   57  F  5 XX   -0.008836   0.006267   0.005789  -0.000808   0.000165
   58  F  5 YY    0.019428  -0.004025  -0.012483  -0.000877   0.000633
   59  F  5 ZZ   -0.001866   0.004138  -0.005684  -0.004327  -0.002000
   60  F  5 XY    0.007574   0.003303  -0.000444   0.004271   0.002833
   61  F  5 XZ   -0.009693   0.013358  -0.003064   0.001853  -0.001745
   62  F  5 YZ   -0.002520   0.009594  -0.004636   0.000967  -0.000720
   63  H  6  S   -0.005819  -0.060391   0.166174  -0.110664   0.115801
   64  H  6  S    0.006862  -0.048088   0.135100  -0.103806   0.121124
   65  H  7  S    0.017586  -0.014144  -0.056219  -0.014042  -0.102225
   66  H  7  S   -0.004636  -0.024561  -0.065313  -0.014910  -0.066287

                     16         17         18         19         20
                   -0.4196     0.1242     0.1582     0.2665     0.2850
                     A          A          A          A          A   
    1  C  1  S   -0.017547   0.046243   0.080009   0.020334   0.066612
    2  C  1  S    0.012873  -0.091363  -0.135996  -0.019336  -0.023106
    3  C  1  X   -0.121188   0.053668  -0.026298   0.132010  -0.066320
    4  C  1  Y    0.278639  -0.051193  -0.222883  -0.062341  -0.058922
    5  C  1  Z   -0.231532   0.099214   0.182163  -0.199570  -0.285950
    6  C  1  S    0.101251  -0.249655  -0.713552  -0.553384  -1.601977
    7  C  1  X   -0.014212   0.207597  -0.093214   0.277360  -0.367107
    8  C  1  Y    0.185574  -0.136609  -0.510106  -0.390675  -0.057029
    9  C  1  Z   -0.174345   0.153222   0.146294  -0.619773  -1.135677
   10  C  1 XX   -0.008553   0.008629  -0.003804   0.009063   0.001388
   11  C  1 YY   -0.001390  -0.012219   0.005954   0.000843   0.012206
   12  C  1 ZZ    0.007571   0.004983   0.017559  -0.001988   0.001078
   13  C  1 XY    0.022086   0.022283   0.007536   0.006097  -0.007029
   14  C  1 XZ   -0.024288   0.015195  -0.017690  -0.002000   0.004563
   15  C  1 YZ   -0.002951  -0.012508   0.001345   0.006177  -0.002693
   16  C  2  S    0.032376   0.014038   0.016677   0.070592  -0.075825
   17  C  2  S   -0.082829  -0.031045  -0.033237  -0.108933   0.039033
   18  C  2  X    0.168988   0.135501  -0.025631   0.041634  -0.042126
   19  C  2  Y   -0.196419   0.195369  -0.137074   0.184198  -0.025803
   20  C  2  Z    0.117005   0.281643  -0.136849  -0.167837   0.133155
   21  C  2  S   -0.153063  -0.191003  -0.116107  -1.142296   1.528592
   22  C  2  X    0.062521   0.257245   0.055699   0.339923  -0.469961
   23  C  2  Y   -0.119178   0.241922  -0.211411   0.826823   0.002797
   24  C  2  Z    0.066501   0.507629  -0.185653  -0.600237   0.603227
   25  C  2 XX   -0.025113  -0.014515   0.011848  -0.001813  -0.008753
   26  C  2 YY    0.015504  -0.002734  -0.004646  -0.000402  -0.017671
   27  C  2 ZZ    0.012691   0.013403  -0.004373   0.005699   0.007536
   28  C  2 XY    0.020343  -0.016113   0.006052  -0.001036   0.003529
   29  C  2 XZ    0.005443  -0.013818   0.004553   0.003851   0.008286
   30  C  2 YZ   -0.023539   0.006012   0.002506  -0.004203   0.003867
   31  O  3  S    0.013798   0.011513   0.019280  -0.001798  -0.000283
   32  O  3  S   -0.033970  -0.028670  -0.035680   0.029806  -0.013622
   33  O  3  X   -0.024523  -0.067467   0.067801  -0.001598   0.015954
   34  O  3  Y    0.138004  -0.245910   0.018408  -0.030456   0.000192
   35  O  3  Z   -0.005518  -0.196247   0.206688   0.003181  -0.078189
   36  O  3  S   -0.046017  -0.062561  -0.186279  -0.187446   0.111987
   37  O  3  X   -0.028548  -0.099724   0.118268   0.062109  -0.004247
   38  O  3  Y    0.122511  -0.310071   0.042367  -0.135364  -0.034094
   39  O  3  Z    0.004313  -0.290793   0.237817   0.010655  -0.142900
   40  O  3 XX   -0.002114  -0.002120  -0.003303   0.009753  -0.003649
   41  O  3 YY    0.002705   0.001590   0.007746   0.004477  -0.009362
   42  O  3 ZZ    0.005020   0.002547   0.007012   0.002597   0.001442
   43  O  3 XY   -0.005037  -0.000442   0.000201  -0.001509   0.006924
   44  O  3 XZ   -0.002264   0.002442   0.005272   0.003442   0.001060
   45  O  3 YZ   -0.003365  -0.004251  -0.006207  -0.000774   0.004694
   46  H  4  S    0.148437  -0.008398  -0.033550   0.011180  -0.046671
   47  H  4  S    0.199309  -0.036761  -0.074530   1.827562  -1.177477
   48  F  5  S   -0.000559  -0.025518   0.006353  -0.001783   0.013975
   49  F  5  S   -0.011041   0.064156   0.012091  -0.004335  -0.032878
   50  F  5  X    0.085100   0.115971  -0.023274   0.002061  -0.020782
   51  F  5  Y   -0.131647   0.072256   0.076142   0.041021  -0.059233
   52  F  5  Z    0.138889  -0.014420  -0.067755   0.032114   0.068819
   53  F  5  S    0.038849   0.170440  -0.127128   0.014627  -0.100479
   54  F  5  X    0.074471   0.119986  -0.047535  -0.021170  -0.038855
   55  F  5  Y   -0.112355   0.114053   0.063472   0.043586  -0.073079
   56  F  5  Z    0.130753  -0.016264  -0.085177   0.086659   0.136952
   57  F  5 XX   -0.007583   0.001753   0.010405  -0.006075  -0.001278
   58  F  5 YY   -0.004750   0.004799   0.002146  -0.005835  -0.003698
   59  F  5 ZZ   -0.003121   0.007421   0.013914  -0.002331   0.001151
   60  F  5 XY   -0.000652   0.005806  -0.005996  -0.001920  -0.002775
   61  F  5 XZ    0.000372   0.002859   0.000869  -0.003022  -0.003856
   62  F  5 YZ   -0.000015   0.001042   0.004411  -0.003399  -0.000916
   63  H  6  S   -0.012079  -0.030216   0.107188   0.000257  -0.026103
   64  H  6  S    0.025192   0.021484   0.648139   1.261684   1.701227
   65  H  7  S    0.202010   0.116788   0.188641  -0.017035  -0.057535
   66  H  7  S    0.332918   0.500350   0.930625  -0.599315  -0.136738

                     21         22         23         24         25
                    0.3368     0.4380     0.4625     0.7189     0.7394
                     A          A          A          A          A   
    1  C  1  S    0.056923   0.055870   0.114028  -0.011627  -0.017184
    2  C  1  S   -0.067915  -0.035126  -0.136333   0.211489   0.149172
    3  C  1  X    0.200582   0.140229  -0.155288   0.376584  -0.482458
    4  C  1  Y    0.144067   0.036305   0.128364  -0.782215  -0.105386
    5  C  1  Z   -0.012171  -0.012207   0.117780   0.132454  -0.131319
    6  C  1  S   -0.497900  -1.477358  -2.084853  -0.010299  -0.100025
    7  C  1  X    1.106281   0.306046  -1.507658  -0.281669   0.377144
    8  C  1  Y    0.545433   1.001964   1.278751   0.999830   0.087369
    9  C  1  Z    0.084040  -0.213938   0.324926   0.078428   0.070039
   10  C  1 XX   -0.007428  -0.014189   0.013567  -0.040389  -0.031437
   11  C  1 YY   -0.004526   0.005310   0.000894   0.038414   0.012937
   12  C  1 ZZ   -0.018831  -0.009589  -0.040131  -0.031416  -0.002469
   13  C  1 XY    0.001799   0.002957  -0.011400  -0.048732  -0.056332
   14  C  1 XZ    0.003708   0.006316   0.012150   0.029186  -0.023293
   15  C  1 YZ    0.018978  -0.017004  -0.000414  -0.026300  -0.014036
   16  C  2  S   -0.036699   0.019478  -0.084318   0.057907  -0.014701
   17  C  2  S   -0.018384   0.034169  -0.000062   0.038540  -0.024250
   18  C  2  X    0.015055  -0.111566  -0.192146  -0.074064  -0.301675
   19  C  2  Y   -0.174775  -0.077988   0.320429   0.084006  -0.480935
   20  C  2  Z   -0.074797  -0.024571  -0.132522  -0.111202  -0.710090
   21  C  2  S    0.937949  -1.267356   2.403137   0.216452  -0.010322
   22  C  2  X    0.648620  -2.442001  -0.747802   0.419102   0.203731
   23  C  2  Y   -0.477561  -0.216076   1.335576  -0.682343   0.552444
   24  C  2  Z   -0.366000   0.796605  -1.038150   0.291197   0.791816
   25  C  2 XX   -0.014999  -0.009840   0.007820   0.134194  -0.003770
   26  C  2 YY    0.019344   0.011342   0.000435  -0.007748  -0.044520
   27  C  2 ZZ   -0.012061  -0.012527  -0.004448  -0.040836   0.022908
   28  C  2 XY    0.002610   0.000231   0.014939  -0.058981   0.023493
   29  C  2 XZ    0.006849  -0.000864  -0.009189  -0.010522  -0.001490
   30  C  2 YZ    0.001760  -0.005679   0.019189  -0.005615   0.013182
   31  O  3  S    0.041007  -0.099311   0.042723   0.003022   0.001088
   32  O  3  S   -0.025848   0.022983  -0.051664   0.066367  -0.053368
   33  O  3  X    0.081366  -0.033980   0.107291  -0.156723  -0.002662
   34  O  3  Y    0.082789  -0.066305  -0.113915   0.088656  -0.070247
   35  O  3  Z   -0.026545   0.103293   0.039704  -0.049161  -0.019756
   36  O  3  S   -0.839832   2.442295  -0.814194  -0.305528   0.108298
   37  O  3  X    0.319041  -0.713982   0.560405   0.082514  -0.008852
   38  O  3  Y    0.272719  -0.212003  -0.273153   0.151939  -0.050950
   39  O  3  Z   -0.133949   0.546658   0.078328  -0.088322  -0.036935
   40  O  3 XX    0.005756  -0.012059  -0.009464  -0.023674   0.017804
   41  O  3 YY    0.032658  -0.064399   0.017115   0.036264  -0.002414
   42  O  3 ZZ    0.011943  -0.064308   0.012731   0.012950  -0.063397
   43  O  3 XY   -0.003336   0.013694  -0.007014  -0.000688   0.035515
   44  O  3 XZ    0.012186  -0.037014   0.013354   0.016182   0.048569
   45  O  3 YZ    0.006376  -0.010471   0.018342   0.000470  -0.004252
   46  H  4  S    0.020840   0.071662  -0.091583  -0.074335  -0.056285
   47  H  4  S   -0.526987  -0.166516   0.876981  -0.190325   0.030508
   48  F  5  S   -0.079206  -0.041415  -0.023320  -0.009311   0.001136
   49  F  5  S    0.026016  -0.021992  -0.042947  -0.099130  -0.035341
   50  F  5  X    0.123174   0.041520   0.121057  -0.060771  -0.087932
   51  F  5  Y    0.157260   0.114741   0.007501  -0.073095  -0.134607
   52  F  5  Z    0.068888  -0.007144  -0.012359  -0.024877  -0.054874
   53  F  5  S    1.055590   0.737125   0.395935   0.407174   0.195977
   54  F  5  X    0.336236   0.188440   0.308553   0.148276   0.021763
   55  F  5  Y    0.352541   0.244317  -0.035778  -0.054934   0.007544
   56  F  5  Z    0.119556   0.081411  -0.016677   0.013107   0.009066
   57  F  5 XX   -0.039746  -0.034259  -0.032350   0.019617   0.011209
   58  F  5 YY   -0.050191  -0.039408  -0.035516  -0.075563   0.023120
   59  F  5 ZZ   -0.064035  -0.036940  -0.046874  -0.061419  -0.026876
   60  F  5 XY    0.011680   0.003372  -0.016804   0.020913   0.061442
   61  F  5 XZ    0.000280   0.013041   0.003039   0.029552   0.024909
   62  F  5 YZ    0.006880  -0.004996   0.001723   0.003734   0.010937
   63  H  6  S    0.013369  -0.062112  -0.116744  -0.192636  -0.061297
   64  H  6  S    0.451932   0.253250  -0.389752  -0.012540  -0.136324
   65  H  7  S   -0.014768   0.015777  -0.055027  -0.315133   0.001378
   66  H  7  S   -0.484334   0.208237   0.325034   0.541680   0.030703

                     26         27         28         29         30
                    0.7968     0.8580     0.8746     0.8892     0.9466
                     A          A          A          A          A   
    1  C  1  S   -0.018782   0.026885  -0.018036  -0.038100  -0.006652
    2  C  1  S    0.338072   0.062894   0.313653  -0.187288  -0.361497
    3  C  1  X   -0.708458   0.065066   0.417062   0.009250   0.060785
    4  C  1  Y   -0.374045  -0.390629   0.041655  -0.337532   0.088144
    5  C  1  Z   -0.351586   0.302382  -0.769105   0.158769  -0.104270
    6  C  1  S   -0.431870  -0.392679  -0.432175  -0.617955   1.389526
    7  C  1  X    0.979021  -0.479943  -1.251346  -0.553945   0.088076
    8  C  1  Y    0.662461   0.330732   0.101461   0.908137  -0.238388
    9  C  1  Z    0.567167  -0.602760   1.790706  -0.027553   0.359872
   10  C  1 XX   -0.019858   0.050692   0.056517  -0.118986   0.023259
   11  C  1 YY   -0.017529  -0.033270   0.026971  -0.023497   0.016322
   12  C  1 ZZ    0.016285   0.016865  -0.010498   0.009330  -0.047931
   13  C  1 XY   -0.086060  -0.002124   0.025472   0.095845  -0.005705
   14  C  1 XZ   -0.021541  -0.093104  -0.024285  -0.015343  -0.002166
   15  C  1 YZ   -0.023213   0.032511   0.001584  -0.021020  -0.066186
   16  C  2  S   -0.006248   0.007881   0.022894  -0.027176   0.021468
   17  C  2  S    0.043773   0.387417   0.268934  -0.870516  -0.554129
   18  C  2  X    0.028972  -0.069758   0.120257   0.573003  -0.799294
   19  C  2  Y    0.343080  -0.244146  -0.321137  -0.508096  -0.084050
   20  C  2  Z    0.413198   0.127375   0.122429   0.201062   0.336158
   21  C  2  S   -0.355053  -0.440777   0.072499   2.338144  -0.410768
   22  C  2  X   -0.303831   0.056421   0.057015  -1.024698   0.885251
   23  C  2  Y   -0.506280   1.221265   0.986095   1.271075  -0.378176
   24  C  2  Z   -0.641945  -0.712679  -1.000918  -0.767628  -0.092406
   25  C  2 XX    0.018596   0.001225   0.070841  -0.018431   0.016713
   26  C  2 YY   -0.009488   0.081262   0.052561  -0.075144  -0.056948
   27  C  2 ZZ   -0.005214   0.050858   0.001051  -0.072319  -0.038693
   28  C  2 XY    0.042075  -0.056405  -0.041099   0.003096   0.024666
   29  C  2 XZ    0.000629   0.040617  -0.008561   0.004883  -0.064069
   30  C  2 YZ    0.004053  -0.117873  -0.052726   0.075705   0.002751
   31  O  3  S   -0.006544  -0.003982   0.010280   0.011211  -0.052085
   32  O  3  S   -0.018225   0.061134  -0.091869  -0.053716   0.206700
   33  O  3  X    0.033080   0.179809  -0.048545   0.008110  -0.085765
   34  O  3  Y   -0.042628  -0.092822  -0.101417  -0.048041   0.053542
   35  O  3  Z    0.044846  -0.026881   0.087642  -0.030643  -0.011234
   36  O  3  S    0.192627  -0.132135  -0.337034  -0.316686   0.027489
   37  O  3  X   -0.050534  -0.132158   0.293141   0.281852  -0.759406
   38  O  3  Y    0.034133  -0.090711  -0.007080  -0.039725  -0.007854
   39  O  3  Z    0.109958   0.056105  -0.023961  -0.024001   0.298799
   40  O  3 XX   -0.030520   0.057732  -0.082853  -0.048794  -0.042027
   41  O  3 YY   -0.002118   0.009450  -0.011228   0.013789   0.088840
   42  O  3 ZZ    0.004020   0.009091  -0.027488   0.017410   0.039055
   43  O  3 XY   -0.044415  -0.013434   0.028877   0.043588  -0.047081
   44  O  3 XZ   -0.023080  -0.004268  -0.004705  -0.012071   0.092745
   45  O  3 YZ    0.016814  -0.026773  -0.021445   0.004963   0.004304
   46  H  4  S    0.030180   0.516772   0.135506  -0.260607  -0.186290
   47  H  4  S    0.104919   0.658084   0.633402   0.528934  -0.035098
   48  F  5  S   -0.002782   0.011233   0.004882  -0.004472   0.000808
   49  F  5  S   -0.167144   0.177563   0.001380  -0.366379   0.008603
   50  F  5  X   -0.241051   0.079892   0.094818  -0.096244   0.080926
   51  F  5  Y   -0.127513  -0.121859  -0.046774   0.051148   0.006296
   52  F  5  Z   -0.066901   0.019876  -0.152347  -0.030386  -0.069791
   53  F  5  S    0.735515  -0.397517  -0.137577   0.661408  -0.163667
   54  F  5  X    0.053448  -0.019080   0.031483   0.006949  -0.035674
   55  F  5  Y    0.074928  -0.050514  -0.064975  -0.074522  -0.045506
   56  F  5  Z   -0.017847   0.055455  -0.161139  -0.003236  -0.014519
   57  F  5 XX   -0.000661   0.089231   0.007994  -0.115911  -0.020232
   58  F  5 YY   -0.006200   0.082320  -0.001735  -0.184845   0.002098
   59  F  5 ZZ   -0.105869   0.088345  -0.013518  -0.160151   0.007865
   60  F  5 XY    0.099864   0.017442  -0.003563  -0.021543  -0.029148
   61  F  5 XZ    0.019489   0.010013  -0.029697   0.023847   0.003328
   62  F  5 YZ    0.026382   0.029639  -0.014518   0.002690   0.000155
   63  H  6  S   -0.034503   0.234471  -0.211455  -0.199496  -0.225219
   64  H  6  S    0.021280   0.109746  -0.772307  -0.390330  -0.102813
   65  H  7  S    0.085153   0.567331   0.002328   0.203923   0.442746
   66  H  7  S   -0.163890  -1.013649   0.604219  -0.827041  -0.544756

                     31         32         33         34         35
                    1.0556     1.0913     1.1175     1.1366     1.2308
                     A          A          A          A          A   
    1  C  1  S   -0.014988   0.002351  -0.028088   0.001105   0.054978
    2  C  1  S   -0.485713  -0.549856   0.529683  -0.666472   0.745343
    3  C  1  X    0.043324   0.109517  -0.080014  -0.042153   0.254834
    4  C  1  Y   -0.122344  -0.202086   0.211539  -0.067779   0.034411
    5  C  1  Z   -0.244072  -0.412184   0.406232  -0.060113  -0.035287
    6  C  1  S    2.046028   1.077570  -0.866425   1.886372  -2.483675
    7  C  1  X    0.370063  -0.289590   0.257382   0.577465  -1.015711
    8  C  1  Y   -0.056056   0.387360  -0.266911  -0.114441   0.659284
    9  C  1  Z    0.612639   0.686401  -0.637470  -0.049207  -0.473717
   10  C  1 XX    0.078772  -0.062748   0.128047  -0.074692  -0.033309
   11  C  1 YY   -0.049744  -0.059696   0.018671   0.006643   0.029310
   12  C  1 ZZ   -0.040058   0.030779  -0.057491   0.007180   0.101568
   13  C  1 XY    0.016734   0.028199   0.046508  -0.020827  -0.092848
   14  C  1 XZ   -0.070334  -0.056653  -0.015138  -0.008584  -0.050620
   15  C  1 YZ   -0.054500   0.070870  -0.134160  -0.056172   0.018833
   16  C  2  S   -0.059504   0.021312   0.039715   0.030717  -0.027621
   17  C  2  S    0.322575  -0.906820  -0.232093   0.791288  -0.522924
   18  C  2  X    0.252781   0.057799   0.151195  -0.035628   0.047940
   19  C  2  Y    0.326005   0.400011   0.266439  -0.055689   0.052171
   20  C  2  Z   -0.366097  -0.360924  -0.246493   0.076868  -0.141097
   21  C  2  S   -0.966511   2.008533   0.812524  -1.726274   2.499473
   22  C  2  X    0.070317  -0.186231  -0.028685   0.359044  -0.871762
   23  C  2  Y   -1.539607  -0.698137  -0.588728  -0.240079   0.299503
   24  C  2  Z    1.063933   0.577819   0.443372   0.029816   0.604064
   25  C  2 XX   -0.166450  -0.073310   0.017148   0.193597   0.093703
   26  C  2 YY    0.092540  -0.044094   0.032393  -0.048359  -0.124731
   27  C  2 ZZ    0.020294  -0.013054  -0.035840   0.048554  -0.028610
   28  C  2 XY   -0.068086   0.072490  -0.006007   0.073030  -0.008342
   29  C  2 XZ    0.148013  -0.044294  -0.108064  -0.134398   0.077674
   30  C  2 YZ    0.014387  -0.120250  -0.093680  -0.010067   0.046256
   31  O  3  S    0.018512  -0.009252  -0.009193  -0.023315  -0.004127
   32  O  3  S   -0.013842  -0.071388  -0.199089  -0.481519  -0.020282
   33  O  3  X    0.402735  -0.181513  -0.169838  -0.503305   0.136788
   34  O  3  Y    0.192394  -0.096435   0.040391   0.070721   0.201015
   35  O  3  Z   -0.247538   0.044274   0.204443   0.073768   0.504417
   36  O  3  S    0.482109   0.042305   0.336535   1.099137   0.074299
   37  O  3  X   -0.527883   0.212421   0.326752   0.652930  -0.159688
   38  O  3  Y    0.149627   0.089333   0.094763   0.077491  -0.207232
   39  O  3  Z    0.054459  -0.066679  -0.335543  -0.266220  -0.742159
   40  O  3 XX    0.201351  -0.021292  -0.068381  -0.226978  -0.052808
   41  O  3 YY   -0.011292  -0.036355  -0.092107  -0.191010  -0.034622
   42  O  3 ZZ    0.003451  -0.064937  -0.117257  -0.217189   0.051357
   43  O  3 XY    0.007082  -0.069481  -0.040889  -0.033633   0.016829
   44  O  3 XZ   -0.113741   0.049012   0.034531   0.028723   0.008402
   45  O  3 YZ   -0.053747   0.046578   0.003508  -0.022036  -0.000634
   46  H  4  S   -0.299227   0.610429   0.405336  -0.361787  -0.313433
   47  H  4  S   -0.797603  -1.607957  -1.023776   0.545466  -0.284177
   48  F  5  S    0.008252   0.002361   0.003925   0.001642   0.033057
   49  F  5  S   -0.046871  -0.060366  -0.078934   0.088254   0.761836
   50  F  5  X    0.080268  -0.002501   0.045393  -0.000413  -0.159911
   51  F  5  Y    0.031734   0.036265  -0.042703   0.052926  -0.138728
   52  F  5  Z   -0.169148   0.015397  -0.107724  -0.009222   0.003391
   53  F  5  S   -0.119301  -0.003039   0.134250  -0.247303  -1.249753
   54  F  5  X   -0.146640  -0.027138  -0.090257  -0.019809   0.329370
   55  F  5  Y   -0.073531  -0.045070   0.016832  -0.026030   0.189169
   56  F  5  Z    0.005718  -0.069827   0.075769   0.038900   0.082956
   57  F  5 XX   -0.047531   0.010780  -0.071084   0.031220   0.419310
   58  F  5 YY   -0.007564  -0.045326  -0.005563   0.025185   0.378874
   59  F  5 ZZ    0.008811  -0.032258  -0.004165   0.051055   0.294518
   60  F  5 XY   -0.023603  -0.024216  -0.003794  -0.015253   0.009836
   61  F  5 XZ    0.024004  -0.021898   0.050658   0.009503   0.027685
   62  F  5 YZ   -0.000427  -0.025407   0.053683  -0.025933  -0.016092
   63  H  6  S   -0.130346   0.446274  -0.795206   0.191698   0.316098
   64  H  6  S   -0.544714  -1.222782   1.341042  -0.339451   0.060110
   65  H  7  S    0.545555   0.105315   0.366891   0.490304   0.351066
   66  H  7  S   -0.197784  -0.015460  -0.416701  -0.796517  -0.143835

                     36         37         38         39         40
                    1.2678     1.3626     1.4527     1.5339     1.6486
                     A          A          A          A          A   
    1  C  1  S   -0.041967   0.000689  -0.093514   0.009112  -0.000630
    2  C  1  S   -0.679349  -0.330395  -1.204282   0.171763   0.016875
    3  C  1  X   -0.153948  -0.105035  -0.037198   0.016827   0.063409
    4  C  1  Y   -0.124452  -0.073362   0.055019  -0.105728  -0.051186
    5  C  1  Z   -0.050788  -0.015327   0.045438  -0.111305  -0.055196
    6  C  1  S    1.865630   1.788015   3.788198  -0.556145   0.028632
    7  C  1  X    0.412542   0.890947   0.931209  -0.198373  -0.278381
    8  C  1  Y   -0.353356  -0.252380  -0.914668   0.116336   0.152456
    9  C  1  Z    0.390357  -0.097326   0.289657   0.240651   0.063872
   10  C  1 XX   -0.036950   0.057297  -0.129918   0.102166   0.151155
   11  C  1 YY   -0.044779   0.029884  -0.164100  -0.279973  -0.153286
   12  C  1 ZZ   -0.021331  -0.042676   0.040226   0.192487   0.002103
   13  C  1 XY    0.071805   0.044373  -0.074680   0.066912  -0.015791
   14  C  1 XZ    0.055669   0.084441  -0.005499   0.248935   0.081243
   15  C  1 YZ    0.002782   0.014181  -0.166633  -0.075631  -0.094375
   16  C  2  S    0.010942   0.016608   0.022127  -0.010243  -0.016145
   17  C  2  S    0.225061   0.219317   0.204854  -0.161253  -0.076712
   18  C  2  X   -0.037535  -0.159687   0.046930   0.098148  -0.075913
   19  C  2  Y   -0.224999   0.146837   0.003778   0.050581  -0.060089
   20  C  2  Z    0.034691  -0.109282   0.055352   0.006777  -0.010424
   21  C  2  S   -1.435528  -0.850798  -2.080805   0.752970  -1.645299
   22  C  2  X    0.552194   1.031868   1.219702  -0.414751  -1.059538
   23  C  2  Y    0.638263  -1.283077  -0.768692  -0.106956  -0.074550
   24  C  2  Z   -0.172528   0.757079   0.010543  -0.167252   0.601613
   25  C  2 XX   -0.051568   0.103619  -0.031761  -0.181536  -0.121324
   26  C  2 YY    0.070053  -0.001463   0.049367   0.187061   0.216691
   27  C  2 ZZ   -0.003071  -0.083928  -0.017342  -0.054235  -0.084461
   28  C  2 XY    0.086804  -0.069869  -0.022730  -0.139319  -0.147350
   29  C  2 XZ   -0.003576  -0.007433  -0.065475  -0.287409   0.031309
   30  C  2 YZ   -0.041534   0.055735   0.016623   0.184264  -0.054848
   31  O  3  S    0.002238  -0.003876   0.000632   0.006377  -0.065210
   32  O  3  S   -0.008679  -0.004466  -0.088397   0.143359  -1.086188
   33  O  3  X    0.155456   0.227796   0.172827  -0.083184   0.159216
   34  O  3  Y    0.647386  -0.500273  -0.277533   0.055545   0.094083
   35  O  3  Z    0.441743   0.510135   0.144458  -0.053898  -0.053255
   36  O  3  S   -0.056613   0.041554   0.068916  -0.305652   3.420272
   37  O  3  X   -0.186554  -0.475527  -0.322062   0.268803  -1.030714
   38  O  3  Y   -0.975412   1.000593   0.550985   0.051660  -0.266246
   39  O  3  Z   -0.462621  -0.902435  -0.249252   0.216486   0.476562
   40  O  3 XX    0.010131  -0.070463  -0.029980   0.093055  -0.345850
   41  O  3 YY    0.002316   0.029770   0.019539   0.138633  -0.167911
   42  O  3 ZZ   -0.005951   0.005102  -0.046565  -0.115639  -0.325124
   43  O  3 XY   -0.040598   0.038679   0.027604   0.087786  -0.033955
   44  O  3 XZ   -0.017367  -0.033381  -0.029361   0.022791   0.032306
   45  O  3 YZ    0.028157  -0.048247  -0.011736   0.013809  -0.045165
   46  H  4  S    0.194999  -0.074341   0.172022  -0.119104   0.058708
   47  H  4  S    0.455225  -0.550592  -0.083576  -0.047226  -0.064218
   48  F  5  S   -0.006703  -0.040846   0.058086   0.014117   0.014628
   49  F  5  S   -0.285682  -0.663966   0.724791   0.139615   0.131606
   50  F  5  X    0.176201   0.228014  -0.299383   0.256241  -0.391301
   51  F  5  Y   -0.036561   0.179021  -0.389484  -0.412427   0.329579
   52  F  5  Z    0.019475   0.177778  -0.199468   0.375152   0.333277
   53  F  5  S    0.312545   1.302204  -1.928357  -0.290553  -0.379498
   54  F  5  X   -0.292161  -0.309697   0.224300  -0.328675   0.477675
   55  F  5  Y   -0.048831  -0.223555   0.439229   0.418199  -0.477223
   56  F  5  Z   -0.076653  -0.161269   0.167874  -0.439519  -0.443796
   57  F  5 XX   -0.167809  -0.350916   0.274867   0.011133  -0.138064
   58  F  5 YY   -0.151120  -0.319020   0.318934   0.158571   0.228161
   59  F  5 ZZ   -0.081562  -0.309136   0.509030   0.036668   0.108065
   60  F  5 XY    0.018713   0.000768  -0.028320   0.049317   0.024836
   61  F  5 XZ   -0.020129  -0.008670  -0.018327  -0.026290   0.068817
   62  F  5 YZ   -0.011034  -0.031327  -0.009650  -0.054537  -0.017970
   63  H  6  S   -0.092901   0.058309  -0.307331   0.085346   0.009728
   64  H  6  S   -0.479186  -0.038534  -0.285070  -0.123791  -0.096767
   65  H  7  S   -0.312875   0.082269  -0.282493   0.130591   0.019804
   66  H  7  S    0.076094  -0.499838  -0.323790   0.140979   0.027809

                     41         42         43         44         45
                    1.6630     1.7162     1.7773     1.8394     1.9182
                     A          A          A          A          A   
    1  C  1  S    0.024723  -0.002249  -0.011124  -0.016785   0.017818
    2  C  1  S    0.258145   0.065708  -0.223469  -0.202912  -0.038814
    3  C  1  X   -0.024175  -0.026204  -0.017511  -0.120665  -0.106747
    4  C  1  Y   -0.110115   0.031624  -0.089334   0.104416  -0.054087
    5  C  1  Z    0.141101   0.020696  -0.087845   0.078616   0.040515
    6  C  1  S   -0.733411   0.041142   0.902951   0.142326  -0.641623
    7  C  1  X    0.042287   0.505870  -0.118019   0.434432   0.571403
    8  C  1  Y    0.141719  -0.030611  -0.041065   0.105543   0.332382
    9  C  1  Z   -1.021988  -0.223155   0.358126   0.256051  -0.657689
   10  C  1 XX    0.007030  -0.188219   0.016466   0.026054   0.438110
   11  C  1 YY   -0.138279   0.275739  -0.014108   0.013520  -0.401040
   12  C  1 ZZ    0.194090  -0.059323   0.026485  -0.130446  -0.055347
   13  C  1 XY    0.072020   0.029191   0.068586  -0.268517   0.025533
   14  C  1 XZ    0.197016  -0.075636  -0.127929   0.257904  -0.371922
   15  C  1 YZ   -0.006761  -0.060539  -0.080821   0.354903  -0.008709
   16  C  2  S   -0.017628  -0.031750   0.006567   0.003028  -0.010071
   17  C  2  S   -0.168988  -0.102775   0.035906  -0.111404  -0.386525
   18  C  2  X   -0.062245  -0.027066   0.053015   0.107873  -0.027396
   19  C  2  Y    0.035348   0.107612   0.076528   0.005730  -0.071463
   20  C  2  Z    0.066428   0.059689   0.159237   0.022569   0.072863
   21  C  2  S   -0.421738  -2.089679   0.128384  -0.327047   0.203156
   22  C  2  X   -0.855818  -1.299019   0.396230  -0.261490  -1.061872
   23  C  2  Y   -0.142055  -0.686173  -0.015434  -0.130356  -0.400295
   24  C  2  Z    0.460821   0.747579  -0.357123   0.045993   0.598629
   25  C  2 XX   -0.147305  -0.054991  -0.139557   0.065097  -0.024917
   26  C  2 YY    0.093882  -0.091931  -0.439568  -0.200409   0.041543
   27  C  2 ZZ    0.066702   0.151302   0.584011   0.095520  -0.031436
   28  C  2 XY   -0.100974  -0.003188  -0.221123  -0.263834  -0.082427
   29  C  2 XZ   -0.086388   0.170887  -0.113825   0.100207   0.179796
   30  C  2 YZ    0.098507  -0.033907  -0.041528  -0.193290  -0.202557
   31  O  3  S   -0.039195  -0.068743   0.013451  -0.007608  -0.029792
   32  O  3  S   -0.623951  -1.216117   0.225699  -0.133955  -0.199303
   33  O  3  X    0.070511   0.180835   0.023203  -0.017821  -0.194935
   34  O  3  Y   -0.021703  -0.046996   0.043594   0.099003  -0.049977
   35  O  3  Z    0.034502  -0.120528   0.144557  -0.018001   0.050270
   36  O  3  S    2.023555   3.910591  -0.786976   0.497509   1.276326
   37  O  3  X   -0.537247  -1.122013   0.206976  -0.086707  -0.155968
   38  O  3  Y    0.009270  -0.027471   0.123808  -0.075611   0.024590
   39  O  3  Z    0.244597   0.605471  -0.071663   0.113767   0.092869
   40  O  3 XX   -0.160780  -0.326570   0.270851   0.005549  -0.195437
   41  O  3 YY   -0.118801  -0.338952  -0.130343  -0.068086  -0.041784
   42  O  3 ZZ   -0.208154  -0.226860   0.022448  -0.021875   0.053194
   43  O  3 XY    0.071869  -0.022605   0.243773  -0.017708  -0.063105
   44  O  3 XZ    0.095122   0.107340   0.307570   0.108720  -0.029334
   45  O  3 YZ    0.056249  -0.011390  -0.082286  -0.364523  -0.216305
   46  H  4  S   -0.012405  -0.026796   0.002820   0.040148  -0.364828
   47  H  4  S   -0.149043  -0.197342   0.103983  -0.101744  -0.284960
   48  F  5  S    0.015828   0.003369   0.026027  -0.027372  -0.015988
   49  F  5  S    0.227403   0.060701   0.320961  -0.464395  -0.102977
   50  F  5  X    0.218913   0.328493  -0.000823  -0.096233   0.234945
   51  F  5  Y    0.195196  -0.302911   0.196129  -0.191020  -0.174571
   52  F  5  Z   -0.626205   0.149080   0.093516  -0.004834  -0.137610
   53  F  5  S   -0.452888  -0.063522  -0.821718   1.059500   0.487209
   54  F  5  X   -0.350246  -0.518664  -0.068268   0.190270  -0.255666
   55  F  5  Y   -0.296596   0.491381  -0.333991   0.354796   0.296719
   56  F  5  Z    0.919825  -0.199569  -0.214381   0.084137   0.234247
   57  F  5 XX    0.084639   0.246210   0.047402  -0.100064  -0.270126
   58  F  5 YY    0.172431  -0.213126   0.148666  -0.062104   0.235412
   59  F  5 ZZ    0.021581   0.040775   0.217405  -0.354439  -0.128253
   60  F  5 XY    0.138821  -0.034085   0.059873  -0.129412  -0.087670
   61  F  5 XZ   -0.107349   0.197412   0.057586  -0.273657   0.118895
   62  F  5 YZ   -0.190739  -0.049500   0.153890  -0.202916   0.218075
   63  H  6  S    0.209114  -0.013153  -0.075874  -0.206637   0.251952
   64  H  6  S    0.460272   0.207752  -0.320292  -0.072697   0.193359
   65  H  7  S   -0.083020  -0.075935  -0.111801   0.107906  -0.305772
   66  H  7  S   -0.231008  -0.058394   0.009639  -0.071028  -0.082901

                     46         47         48         49         50
                    2.0088     2.0447     2.1100     2.1341     2.1994
                     A          A          A          A          A   
    1  C  1  S    0.014631   0.010577  -0.027571   0.010129   0.011177
    2  C  1  S    0.110680  -0.010052  -0.147659   0.799698   0.004585
    3  C  1  X   -0.075051  -0.062750   0.052841   0.266495  -0.090797
    4  C  1  Y    0.066009   0.042941  -0.050091  -0.108248   0.062485
    5  C  1  Z    0.010419   0.022891   0.043524   0.092104   0.001015
    6  C  1  S   -0.513212  -0.325638   0.996441  -1.829986  -0.565842
    7  C  1  X   -0.394338   0.515276  -0.177859   0.374213  -0.330814
    8  C  1  Y   -0.043942   0.128473  -0.031756   0.813279   0.218751
    9  C  1  Z   -0.379247  -0.193949   0.212621  -0.187904   0.094322
   10  C  1 XX   -0.089355   0.102839   0.021730  -0.027338   0.082113
   11  C  1 YY    0.182420   0.017568  -0.125016  -0.153950  -0.015745
   12  C  1 ZZ   -0.094755  -0.089764   0.083759   0.112599  -0.090052
   13  C  1 XY   -0.014038  -0.165861   0.153532   0.058676  -0.044485
   14  C  1 XZ   -0.206374  -0.224340  -0.053583  -0.183420  -0.121687
   15  C  1 YZ    0.067501   0.173289   0.324784   0.165424   0.223341
   16  C  2  S   -0.019397   0.018858  -0.001627   0.001221   0.000586
   17  C  2  S   -0.136086   0.095803  -0.037965   0.186196  -0.296588
   18  C  2  X    0.029955  -0.073727  -0.058012  -0.131134   0.006076
   19  C  2  Y   -0.007426   0.155979   0.045151  -0.015597   0.067727
   20  C  2  Z    0.098001  -0.029117  -0.062702   0.091975   0.016365
   21  C  2  S    0.926511  -1.161326  -0.669045  -0.031577   0.995632
   22  C  2  X   -0.066639  -0.542387  -0.461286  -0.409748  -0.438735
   23  C  2  Y    0.325407  -0.195461  -0.578004  -0.687465   0.325073
   24  C  2  Z    0.061515   0.462739   0.516425   0.622869  -0.255086
   25  C  2 XX   -0.128964  -0.008992  -0.094996  -0.237475   0.057886
   26  C  2 YY    0.166554  -0.039341   0.110500   0.041271  -0.065572
   27  C  2 ZZ   -0.041027   0.057213   0.033522   0.262421   0.039413
   28  C  2 XY   -0.179384  -0.151874   0.105429   0.191341  -0.113631
   29  C  2 XZ   -0.215935   0.067026   0.068111   0.011332   0.162791
   30  C  2 YZ   -0.153369   0.277046   0.044299  -0.095909   0.017405
   31  O  3  S    0.008480  -0.026395  -0.019189  -0.012568  -0.000370
   32  O  3  S    0.109695  -0.338923  -0.317405  -0.156591   0.215347
   33  O  3  X    0.029455  -0.070024  -0.025745   0.026070  -0.176414
   34  O  3  Y    0.013811   0.146646  -0.074129  -0.127154   0.060295
   35  O  3  Z    0.107807  -0.003394   0.001457   0.140238  -0.024365
   36  O  3  S   -0.434837   1.458969   1.275259   0.830977  -0.386587
   37  O  3  X    0.103731  -0.329566  -0.341855  -0.301051   0.299714
   38  O  3  Y   -0.029868  -0.211360   0.112182   0.198037  -0.140240
   39  O  3  Z   -0.171177   0.190723   0.131846  -0.091661   0.087187
   40  O  3 XX    0.090935  -0.317359  -0.109554   0.201129  -0.127083
   41  O  3 YY    0.594516   0.226934  -0.137326  -0.019717   0.246684
   42  O  3 ZZ   -0.604259  -0.132684   0.080193  -0.264318  -0.034725
   43  O  3 XY   -0.159240   0.489448  -0.128072  -0.206421   0.123293
   44  O  3 XZ   -0.105841  -0.110945   0.024076   0.145193  -0.150020
   45  O  3 YZ   -0.236495   0.402917  -0.114079   0.207909  -0.103261
   46  H  4  S   -0.248547   0.283535  -0.158430  -0.452642   0.084795
   47  H  4  S    0.045116  -0.130686  -0.266537  -0.229309  -0.037693
   48  F  5  S    0.016693  -0.031022   0.035687  -0.065999   0.002474
   49  F  5  S    0.244315  -0.478203   0.488737  -1.152607   0.143293
   50  F  5  X    0.005533  -0.040303   0.035470  -0.217131   0.053736
   51  F  5  Y    0.111138  -0.072988   0.002223  -0.210167  -0.002532
   52  F  5  Z   -0.058088  -0.043869   0.109149  -0.045284   0.017659
   53  F  5  S   -0.586980   1.169986  -1.232436   2.815886  -0.230100
   54  F  5  X   -0.062471   0.165716  -0.226525   0.587696  -0.074457
   55  F  5  Y   -0.167955   0.248102  -0.159466   0.510495  -0.013539
   56  F  5  Z    0.088298   0.114504  -0.216269   0.162120  -0.040786
   57  F  5 XX    0.377203  -0.151112   0.222722  -0.638603  -0.272452
   58  F  5 YY   -0.129482  -0.218300  -0.074726  -0.436529  -0.228263
   59  F  5 ZZ    0.041734  -0.146427   0.387407  -0.117680   0.608045
   60  F  5 XY   -0.049361  -0.180125   0.360148  -0.128601   0.443343
   61  F  5 XZ    0.016871  -0.194709  -0.556432  -0.082488   0.232177
   62  F  5 YZ    0.145036   0.220688   0.395374  -0.180130  -0.445893
   63  H  6  S    0.090085   0.015908  -0.356179  -0.016244  -0.077528
   64  H  6  S    0.121552   0.142571  -0.219701   0.330515  -0.084828
   65  H  7  S   -0.091570   0.071273   0.084995   0.062452   0.032332
   66  H  7  S   -0.025134   0.021929   0.006016   0.092835   0.056013

                     51         52         53         54         55
                    2.2727     2.3142     2.3993     2.5226     2.6530
                     A          A          A          A          A   
    1  C  1  S   -0.079291  -0.018261   0.021203   0.008411  -0.054155
    2  C  1  S   -0.776641  -0.238933   0.027346   0.066329  -0.465942
    3  C  1  X    0.099000  -0.058318  -0.170437   0.130856   0.063422
    4  C  1  Y   -0.027356   0.040147   0.005275   0.005647  -0.118510
    5  C  1  Z    0.081475  -0.016808  -0.019842  -0.060902  -0.033077
    6  C  1  S    3.424057   0.761075  -0.423047  -0.645490   2.426067
    7  C  1  X    0.345200  -0.103290   0.134376   0.070460   0.898118
    8  C  1  Y   -1.025420  -0.394820   0.183237  -0.134409  -0.812989
    9  C  1  Z    0.463446  -0.293336  -0.069662  -0.631487  -0.032679
   10  C  1 XX    0.180623   0.295849   0.110535   0.227069   0.064473
   11  C  1 YY    0.024421   0.075953  -0.021720   0.390082   0.179565
   12  C  1 ZZ   -0.232843  -0.415399  -0.044767  -0.739700  -0.190025
   13  C  1 XY    0.111705   0.268828  -0.455104   0.223802  -0.609431
   14  C  1 XZ    0.042937  -0.087808  -0.036822   0.432218   0.174568
   15  C  1 YZ    0.345406   0.323209  -0.145770  -0.213091   0.199198
   16  C  2  S    0.017839   0.011079  -0.034887  -0.013311   0.102884
   17  C  2  S    0.181459   0.117454  -0.336204  -0.234380  -0.012291
   18  C  2  X    0.048156  -0.131623   0.234512   0.183746   0.252172
   19  C  2  Y   -0.075346   0.038686  -0.200293  -0.036800  -0.195596
   20  C  2  Z    0.065911   0.072518   0.077901   0.028519   0.131101
   21  C  2  S   -1.839748  -0.451573   0.917157   0.405181  -1.995479
   22  C  2  X    0.842301   0.204972  -0.317332  -0.291202   0.646187
   23  C  2  Y   -1.018430  -0.113457  -0.127698   0.065436  -0.839737
   24  C  2  Z    0.406877   0.409530   0.155907   0.196541   0.492924
   25  C  2 XX   -0.109820  -0.273235   0.061894   0.211264  -0.234508
   26  C  2 YY   -0.161310   0.564385   0.107785  -0.182275   0.341433
   27  C  2 ZZ    0.238727  -0.280779  -0.294777  -0.035413   0.157718
   28  C  2 XY    0.161671  -0.064404  -0.231131   0.036670   0.030591
   29  C  2 XZ    0.071125  -0.153012  -0.191293  -0.016904   0.311971
   30  C  2 YZ   -0.259017   0.044965  -0.536212  -0.047140   0.545113
   31  O  3  S   -0.010239  -0.006188  -0.001244  -0.000746   0.001332
   32  O  3  S   -0.067025   0.091749  -0.021945  -0.174620   0.161506
   33  O  3  X    0.039614  -0.112859   0.095967   0.112208  -0.236739
   34  O  3  Y   -0.132627  -0.008171  -0.021673   0.021757  -0.106237
   35  O  3  Z    0.034688   0.132243  -0.028462  -0.057097   0.164748
   36  O  3  S    0.383831   0.128878  -0.067389   0.269193   0.244263
   37  O  3  X   -0.281176  -0.066206  -0.000622  -0.094779  -0.129372
   38  O  3  Y    0.325760  -0.023939   0.099905  -0.021201   0.337205
   39  O  3  Z   -0.058622  -0.169306  -0.043586  -0.024462  -0.246064
   40  O  3 XX   -0.004769   0.124044   0.162144   0.087143   0.302855
   41  O  3 YY    0.141941  -0.330490  -0.279656   0.058521  -0.014019
   42  O  3 ZZ   -0.207614   0.249377   0.063447  -0.225752  -0.117011
   43  O  3 XY    0.010095   0.253397   0.014148  -0.025471  -0.356789
   44  O  3 XZ   -0.158057   0.273268   0.074611   0.055558   0.263768
   45  O  3 YZ    0.442578  -0.050240   0.465654   0.064724   0.105118
   46  H  4  S   -0.229299  -0.153552  -0.478180  -0.031915   0.158011
   47  H  4  S   -0.246340  -0.061878  -0.113441  -0.095057  -0.249829
   48  F  5  S    0.059288   0.036677  -0.012623   0.011124   0.007974
   49  F  5  S    0.767651   0.063750   0.154903  -0.285262   0.382223
   50  F  5  X    0.020947  -0.240256   0.186946  -0.119844   0.176388
   51  F  5  Y   -0.033977  -0.079801   0.105991  -0.250197   0.087900
   52  F  5  Z    0.108781  -0.083155   0.051253  -0.161083  -0.030324
   53  F  5  S   -2.198362  -0.647098  -0.010976   0.335374  -0.874006
   54  F  5  X   -0.419547   0.074843  -0.136995  -0.008664  -0.375038
   55  F  5  Y   -0.215198  -0.127052  -0.011150   0.281943  -0.077123
   56  F  5  Z   -0.300030   0.075819  -0.032328   0.284919   0.096752
   57  F  5 XX    0.319331   0.354209   0.064141  -0.362313  -0.107287
   58  F  5 YY    0.653508  -0.162406  -0.224141   0.023802   0.218917
   59  F  5 ZZ   -0.172891  -0.002529   0.246815   0.166885   0.179985
   60  F  5 XY    0.161090  -0.026720   0.069114   0.183145  -0.045907
   61  F  5 XZ    0.088635   0.230272  -0.163183  -0.066997   0.229835
   62  F  5 YZ   -0.148259  -0.095423  -0.018566   0.299667   0.224334
   63  H  6  S   -0.416155   0.113669   0.098524   0.767747  -0.116265
   64  H  6  S   -0.297559   0.003014  -0.028924   0.096381  -0.013182
   65  H  7  S   -0.009601   0.016303  -0.070469   0.021675   0.018003
   66  H  7  S    0.031383  -0.019483   0.027435  -0.122233  -0.161183

                     56         57         58         59         60
                    2.6939     2.7793     2.9188     3.0257     3.1927
                     A          A          A          A          A   
    1  C  1  S   -0.018488  -0.011253   0.024650   0.043399   0.047867
    2  C  1  S   -0.043665  -0.217281  -0.049477  -0.005935  -0.429910
    3  C  1  X    0.111569   0.007331  -0.042781  -0.182816   0.114089
    4  C  1  Y   -0.111913  -0.046351   0.106217   0.022882   0.423441
    5  C  1  Z    0.061267   0.065694   0.021167  -0.025847   0.028396
    6  C  1  S    0.507864   0.780611  -0.579086  -1.001875  -0.561160
    7  C  1  X    0.349320   0.093106  -0.298376  -0.416948   0.044358
    8  C  1  Y   -0.303905  -0.232994   0.195929   0.085657   0.321888
    9  C  1  Z   -0.122073   0.402330   0.128588  -0.005831  -0.072635
   10  C  1 XX   -0.165088   0.350347  -0.292202  -0.727473  -0.026038
   11  C  1 YY    0.373265   0.098868  -0.000512   0.681860  -0.224814
   12  C  1 ZZ   -0.181997  -0.395047   0.342792   0.155603   0.337123
   13  C  1 XY   -0.216152   0.014820   0.132509   0.354342   0.145376
   14  C  1 XZ   -0.487781  -0.361802   0.074320  -0.153438  -0.314670
   15  C  1 YZ    0.133313  -0.632095  -0.074690   0.029381   0.098685
   16  C  2  S   -0.027696   0.060148  -0.002219  -0.006571  -0.060409
   17  C  2  S   -0.076823   0.006327   0.019108  -0.028460   0.006047
   18  C  2  X    0.198095   0.099148  -0.011635  -0.080576  -0.221807
   19  C  2  Y    0.082075  -0.070948   0.212820   0.082155  -0.058428
   20  C  2  Z    0.062462   0.019012   0.184869  -0.103074   0.111458
   21  C  2  S   -0.487379  -0.558817   0.667167   1.191129   0.281176
   22  C  2  X    0.179468   0.247805  -0.142537  -0.454768  -0.226519
   23  C  2  Y   -0.113217  -0.120568   0.398253   0.360712  -0.240244
   24  C  2  Z    0.200437  -0.001185   0.004674  -0.249345   0.256421
   25  C  2 XX    0.277830  -0.145951   0.293831  -0.287968   0.611621
   26  C  2 YY   -0.006474   0.154208   0.280029   0.374297  -0.402719
   27  C  2 ZZ   -0.359590   0.198353  -0.539841   0.018999  -0.524381
   28  C  2 XY    0.393017   0.001967   0.253646  -0.700552  -0.680757
   29  C  2 XZ   -0.489362   0.296658   0.739914   0.064995   0.155810
   30  C  2 YZ    0.166677   0.231298  -0.301605  -0.140986   0.423811
   31  O  3  S   -0.006814   0.000788   0.006486   0.012403   0.007079
   32  O  3  S   -0.451763   0.270688   0.268100   0.417838  -0.278791
   33  O  3  X    0.353439  -0.192971  -0.179835  -0.250878   0.029007
   34  O  3  Y    0.050751  -0.029584  -0.029002   0.001939   0.064958
   35  O  3  Z   -0.151864   0.100822   0.039528   0.098952  -0.045311
   36  O  3  S    0.559200  -0.289563  -0.454671  -0.726200   0.552331
   37  O  3  X   -0.333594   0.140382   0.122545   0.471364  -0.439839
   38  O  3  Y   -0.100341   0.063362  -0.285853   0.057340   0.257706
   39  O  3  Z    0.006565  -0.125197  -0.367635   0.031186  -0.052809
   40  O  3 XX    0.080250   0.052203   0.391924  -0.158001   0.628408
   41  O  3 YY   -0.161083   0.084204   0.223628   0.003089  -0.240646
   42  O  3 ZZ   -0.179148  -0.026080  -0.482842   0.356361  -0.289391
   43  O  3 XY    0.176284  -0.112082   0.558082  -0.180471  -0.476605
   44  O  3 XZ    0.177017   0.117629   0.524270  -0.075246   0.065010
   45  O  3 YZ   -0.210921   0.011858  -0.064943   0.156834   0.308582
   46  H  4  S    0.111469   0.089844  -0.085957  -0.153462   0.313840
   47  H  4  S   -0.108293   0.016674   0.090268   0.077370  -0.361989
   48  F  5  S   -0.007978   0.004211  -0.021365   0.014295  -0.014003
   49  F  5  S    0.128113   0.062518  -0.048091   0.048888  -0.456006
   50  F  5  X    0.138600  -0.029924   0.017187   0.021703  -0.095910
   51  F  5  Y   -0.007768   0.005174  -0.008930  -0.093782  -0.074407
   52  F  5  Z    0.049997   0.145288   0.026550   0.005528  -0.022373
[...]
   31  O  3  S    0.022282  -0.020803  -0.047496   0.036737  -0.004346
   32  O  3  S   -0.040439   0.031693   0.071396  -0.043430   0.036628
   33  O  3  X    0.187035  -0.058570  -0.072650   0.077008  -0.032107
   34  O  3  Y   -0.022353   0.236618   0.076320  -0.091204  -0.029249
   35  O  3  Z    0.227148   0.191034  -0.102704   0.110772  -0.053803
   36  O  3  S   -0.169295   0.185178   0.522230  -0.579583  -0.151602
   37  O  3  X    0.174532  -0.074376  -0.157820   0.250811   0.066325
   38  O  3  Y   -0.033888   0.320412   0.075716  -0.118787  -0.116963
   39  O  3  Z    0.232108   0.259127  -0.141208   0.154469  -0.087908
   40  O  3 XX   -0.007232  -0.001608   0.001491   0.006603   0.003057
   41  O  3 YY    0.007382  -0.001723  -0.024106   0.018917   0.001522
   42  O  3 ZZ    0.008990  -0.013417  -0.018810   0.006863   0.012482
   43  O  3 XY    0.002436  -0.000397  -0.000062  -0.011528   0.008135
   44  O  3 XZ   -0.008242  -0.001044  -0.004456   0.008355   0.000644
   45  O  3 YZ   -0.003095   0.005526   0.003078  -0.001337   0.004579
   46  H  4  S    0.027849   0.002855   0.075804   0.005362  -0.037670
   47  H  4  S    0.051965   0.022051   1.410459   1.616266   0.877776
   48  F  5  S    0.002098   0.009062   0.005106  -0.022426   0.021117
   49  F  5  S   -0.019907  -0.033394  -0.027043   0.055310   0.001727
   50  F  5  X   -0.044166  -0.056528  -0.030389   0.075506  -0.022045
   51  F  5  Y   -0.049821  -0.007903  -0.054228   0.093767   0.013435
   52  F  5  Z    0.215808  -0.027979   0.046221  -0.067704   0.059658
   53  F  5  S    0.023883  -0.035018   0.000453   0.150947  -0.310706
   54  F  5  X   -0.034908  -0.050686  -0.029414   0.097036  -0.091424
   55  F  5  Y   -0.044971  -0.014166  -0.074731   0.126985   0.003987
   56  F  5  Z    0.202920  -0.032151   0.047175  -0.097951   0.124862
   57  F  5 XX   -0.009649  -0.005439  -0.007897   0.005572   0.013515
   58  F  5 YY   -0.007116  -0.004804  -0.004579  -0.000191   0.016427
   59  F  5 ZZ   -0.005512  -0.008067  -0.007869   0.002644   0.020984
   60  F  5 XY   -0.002727  -0.002201   0.002297   0.000192  -0.006677
   61  F  5 XZ   -0.001295   0.000060  -0.004569   0.003382  -0.003704
   62  F  5 YZ   -0.000954   0.003036  -0.004292   0.003613  -0.000071
   63  H  6  S   -0.074500   0.106074   0.000278   0.009456  -0.006010
   64  H  6  S   -0.095479   0.369793  -0.682184   0.016942   2.017809
   65  H  7  S    0.107004  -0.089900  -0.135885   0.133069  -0.075922
   66  H  7  S    0.224130  -0.337430  -1.232503   0.577276   0.014720

                     21         22         23         24         25
                    0.3451     0.4296     0.5240     0.7249     0.7373
                     A          A          A          A          A   
    1  C  1  S    0.021679  -0.093452  -0.098370   0.002490  -0.003813
    2  C  1  S   -0.018186   0.083332   0.056599   0.321724   0.126850
    3  C  1  X    0.192125  -0.176482   0.064713   0.283291  -0.089776
    4  C  1  Y    0.043398  -0.137872  -0.229179  -0.651708  -0.074899
    5  C  1  Z   -0.117098   0.096366  -0.103022   0.221150  -0.129056
    6  C  1  S    0.145137   1.451962   2.666894   0.106071  -0.117794
    7  C  1  X    1.122526  -0.823821   2.096674  -0.385448  -0.237347
    8  C  1  Y   -0.110683  -1.094105  -1.244886   0.696145   0.190334
    9  C  1  Z   -0.139110   0.307916   0.069422  -0.115704   0.067257
   10  C  1 XX    0.013497  -0.010168  -0.009788   0.031705   0.004366
   11  C  1 YY   -0.004994  -0.003405   0.000863   0.027757   0.026415
   12  C  1 ZZ   -0.017249   0.023544   0.016738  -0.008836  -0.008474
   13  C  1 XY   -0.002558  -0.005686   0.005166  -0.030950  -0.035549
   14  C  1 XZ    0.009623  -0.005329  -0.020846   0.008824  -0.031697
   15  C  1 YZ    0.016442   0.008568   0.004129  -0.029867  -0.005755
   16  C  2  S   -0.050073   0.006611   0.112552   0.059947  -0.006134
   17  C  2  S    0.058630  -0.090701  -0.030496   0.568887   0.113112
   18  C  2  X    0.072816   0.182694   0.141129  -0.200620  -0.183070
   19  C  2  Y   -0.028565   0.041039  -0.289968   0.160240  -0.471414
   20  C  2  Z   -0.026042   0.000382   0.083072   0.072170  -0.896612
   21  C  2  S    0.720818   0.575246  -3.412730  -0.999381   0.104765
   22  C  2  X    1.310792   1.721194   0.866919   0.364231   0.117314
   23  C  2  Y   -0.028454   0.647127  -1.939286  -0.620545   0.639570
   24  C  2  Z   -0.201469  -0.426867   1.304015   0.097676   0.929368
   25  C  2 XX   -0.018517   0.026524   0.011851   0.124667   0.012956
   26  C  2 YY    0.022463  -0.020894  -0.014317   0.067948  -0.023234
   27  C  2 ZZ    0.006383   0.005089  -0.004951  -0.010345   0.034837
   28  C  2 XY   -0.015654   0.004128  -0.012620  -0.077239  -0.003924
   29  C  2 XZ    0.014475  -0.000634   0.017456   0.022693   0.000822
   30  C  2 YZ   -0.003361   0.005373  -0.019962  -0.061116  -0.018587
   31  O  3  S    0.042232   0.064988  -0.062923  -0.014344   0.004617
   32  O  3  S   -0.048120   0.017716   0.039932   0.100273  -0.034116
   33  O  3  X    0.082638  -0.063930  -0.071538  -0.024037  -0.005240
   34  O  3  Y    0.143195   0.141773  -0.035408   0.004845  -0.035507
   35  O  3  Z   -0.155993  -0.053310   0.020167  -0.011015  -0.029652
   36  O  3  S   -0.813805  -1.637682   1.515962   0.206936  -0.035038
   37  O  3  X    0.235701   0.360823  -0.761758  -0.220417   0.031051
   38  O  3  Y    0.508757   0.412085  -0.117382   0.018305  -0.039384
   39  O  3  Z   -0.406360  -0.354526   0.125628   0.066645  -0.096907
   40  O  3 XX    0.010604   0.016527   0.000614   0.038219   0.004657
   41  O  3 YY    0.010242   0.044867  -0.016440   0.015855   0.022756
   42  O  3 ZZ    0.008183   0.060209  -0.037294   0.005675  -0.057642
   43  O  3 XY   -0.019248  -0.014051  -0.006165  -0.012973   0.038865
   44  O  3 XZ    0.010763   0.023330   0.006118  -0.015414   0.048211
   45  O  3 YZ    0.017179   0.004929  -0.026976  -0.017969   0.013360
   46  H  4  S    0.054474  -0.075076   0.123964   0.331424  -0.004423
   47  H  4  S   -0.571453   0.175165  -1.051947  -0.292988   0.056579
   48  F  5  S   -0.056362   0.077173   0.003143   0.004922   0.005380
   49  F  5  S    0.054812   0.004663  -0.074937   0.007861   0.027642
   50  F  5  X    0.135526  -0.155620  -0.159265   0.006982  -0.000675
   51  F  5  Y    0.057852  -0.110466   0.069747  -0.108307  -0.086645
   52  F  5  Z    0.061794  -0.011927  -0.015924  -0.002769  -0.033866
   53  F  5  S    0.669198  -1.163478   0.197431  -0.047595  -0.092681
   54  F  5  X    0.273761  -0.459892  -0.214430   0.023941   0.002369
   55  F  5  Y    0.202812  -0.224259   0.206343  -0.112251  -0.042658
   56  F  5  Z    0.059177  -0.053498  -0.009868   0.013617  -0.002064
   57  F  5 XX   -0.015067   0.053161  -0.017028   0.035250   0.027004
   58  F  5 YY   -0.021216   0.061492  -0.034573  -0.009649   0.020273
   59  F  5 ZZ   -0.028741   0.069471  -0.020871   0.000053   0.014402
   60  F  5 XY    0.013149   0.000118   0.011767  -0.001722   0.024621
   61  F  5 XZ   -0.007823  -0.003772  -0.003272   0.012074   0.007432
   62  F  5 YZ    0.002221   0.005433   0.000611   0.005281  -0.008253
   63  H  6  S    0.027050   0.032364   0.043539  -0.123524  -0.087156
   64  H  6  S    0.544395  -0.255026   0.553433   0.113304  -0.254334
   65  H  7  S   -0.043521  -0.042793   0.149135  -0.049292  -0.012110
   66  H  7  S   -1.047142   0.272379  -0.537980   0.226830   0.183547

                     26
                    0.8040
                     A   
    1  C  1  S   -0.006046
    2  C  1  S    0.095410
    3  C  1  X    0.502315
    4  C  1  Y    0.132708
    5  C  1  Z   -0.031917
    6  C  1  S   -0.454352
    7  C  1  X   -0.617886
    8  C  1  Y   -0.355783
    9  C  1  Z    0.080662
   10  C  1 XX    0.028885
   11  C  1 YY   -0.020467
   12  C  1 ZZ    0.018848
   13  C  1 XY    0.071036
   14  C  1 XZ   -0.006550
   15  C  1 YZ    0.046991
   16  C  2  S    0.001855
   17  C  2  S    0.400014
   18  C  2  X    0.773037
   19  C  2  Y    0.086459
   20  C  2  Z   -0.246047
   21  C  2  S   -0.396174
   22  C  2  X   -0.734206
   23  C  2  Y    0.114497
   24  C  2  Z    0.217252
   25  C  2 XX   -0.009415
   26  C  2 YY    0.049279
   27  C  2 ZZ    0.012876
   28  C  2 XY   -0.097401
   29  C  2 XZ    0.061433
   30  C  2 YZ   -0.006126
   31  O  3  S    0.020744
   32  O  3  S   -0.056208
   33  O  3  X    0.117264
   34  O  3  Y    0.087081
   35  O  3  Z   -0.059935
   36  O  3  S    0.100203
   37  O  3  X    0.161155
   38  O  3  Y    0.065154
   39  O  3  Z   -0.079683
   40  O  3 XX    0.013950
   41  O  3 YY    0.010038
   42  O  3 ZZ   -0.007124
   43  O  3 XY    0.115766
   44  O  3 XZ   -0.083733
   45  O  3 YZ   -0.044439
   46  H  4  S    0.161841
   47  H  4  S    0.033541
   48  F  5  S    0.002602
   49  F  5  S    0.026855
   50  F  5  X    0.090169
   51  F  5  Y    0.106775
   52  F  5  Z   -0.018206
   53  F  5  S   -0.254539
   54  F  5  X   -0.052003
   55  F  5  Y    0.004168
   56  F  5  Z   -0.016733
   57  F  5 XX   -0.034197
   58  F  5 YY   -0.008505
   59  F  5 ZZ    0.034480
   60  F  5 XY   -0.050682
   61  F  5 XZ   -0.003414
   62  F  5 YZ   -0.001838
   63  H  6  S    0.058991
   64  H  6  S   -0.006371
   65  H  7  S   -0.368171
   66  H  7  S    0.802859

     ----------------------------------------------------------------
     PROPERTY VALUES FOR THE RHF   SELF-CONSISTENT FIELD WAVEFUNCTION
     ----------------------------------------------------------------

          -----------------
          ENERGY COMPONENTS
          -----------------

         WAVEFUNCTION NORMALIZATION =       1.0000000000

                ONE ELECTRON ENERGY =    -576.9708928795
                TWO ELECTRON ENERGY =     209.1519889651
           NUCLEAR REPULSION ENERGY =     116.2098397481
                                      ------------------
                       TOTAL ENERGY =    -251.6090641663

 ELECTRON-ELECTRON POTENTIAL ENERGY =     209.1519889651
  NUCLEUS-ELECTRON POTENTIAL ENERGY =    -828.2049929651
   NUCLEUS-NUCLEUS POTENTIAL ENERGY =     116.2098397481
                                      ------------------
             TOTAL POTENTIAL ENERGY =    -502.8431642519
               TOTAL KINETIC ENERGY =     251.2341000856
                 VIRIAL RATIO (V/T) =       2.0014924888

          ---------------------------------------
          MULLIKEN AND LOWDIN POPULATION ANALYSES
          ---------------------------------------

     ATOMIC MULLIKEN POPULATION IN EACH MOLECULAR ORBITAL

                      1          2          3          4          5

                  2.000000   2.000000   2.000000   2.000000   2.000000

    1             0.000031   0.000000   0.000538   1.999027   0.155084
    2            -0.000009  -0.000127   1.999759   0.000904   0.013989
    3             0.000000   2.000162  -0.000782   0.000004   0.003138
    4            -0.000000  -0.000001   0.000433  -0.000003   0.000126
    5             1.999979  -0.000000   0.000001  -0.000627   1.825595
    6            -0.000002  -0.000000   0.000018   0.000536   0.001931
    7            -0.000000  -0.000034   0.000034   0.000159   0.000137

                      6          7          8          9         10

                  2.000000   2.000000   2.000000   2.000000   2.000000

    1             0.060247   0.828182   0.195971   0.365867   0.411731
    2             0.381056   0.616072   0.798041   0.195721   0.184742
    3             1.526787   0.259971   0.444584   0.519829   0.332084
    4            -0.002839   0.032126   0.335629   0.025611   0.007134
    5             0.009272   0.187074   0.075760   0.788907   0.896482
    6             0.000955   0.073040   0.050281   0.057828   0.160914
    7             0.024522   0.003535   0.099734   0.046237   0.006912

                     11         12         13         14         15

                  2.000000   2.000000   2.000000   2.000000   2.000000

    1             0.213704   0.142638   0.049440   0.254406   0.347051
    2             0.297045   0.194958   0.260074   0.175439   0.411258
    3             0.621448   0.214138   0.908731   0.931519   0.527135
    4             0.052342   0.129953   0.031118   0.013898   0.130714
    5             0.776299   1.257373   0.678934   0.367852   0.363535
    6             0.026782   0.012914   0.033556   0.242210   0.111444
    7             0.012380   0.048026   0.038148   0.014677   0.108864

                     16

                  2.000000

    1             1.148837
    2             0.145080
    3             0.304266
    4             0.007615
    5             0.169071
    6             0.030436
    7             0.194695

               ----- POPULATIONS IN EACH AO -----
                             MULLIKEN      LOWDIN
              1  C  1  S      1.99674     1.97871
              2  C  1  S      0.63003     0.35977
              3  C  1  X      0.53009     0.48440
              4  C  1  Y      0.64253     0.58294
              5  C  1  Z      0.73190     0.67908
              6  C  1  S      0.66225     0.34798
              7  C  1  X      0.11472     0.23451
              8  C  1  Y      0.24485     0.39928
              9  C  1  Z      0.53113     0.59866
             10  C  1 XX      0.02660     0.18456
             11  C  1 YY      0.01294     0.16874
             12  C  1 ZZ     -0.00344     0.13498
             13  C  1 XY      0.02558     0.05003
             14  C  1 XZ      0.01502     0.03032
             15  C  1 YZ      0.01182     0.02030
             16  C  2  S      1.99681     1.97666
             17  C  2  S      0.71931     0.37644
             18  C  2  X      0.74858     0.66615
             19  C  2  Y      0.66077     0.58884
             20  C  2  Z      0.44146     0.39016
             21  C  2  S      0.44471     0.30504
             22  C  2  X      0.12017     0.26816
             23  C  2  Y      0.19712     0.34390
             24  C  2  Z      0.23427     0.32787
             25  C  2 XX      0.02738     0.19546
             26  C  2 YY      0.02510     0.17501
             27  C  2 ZZ     -0.00595     0.13243
             28  C  2 XY      0.02392     0.04131
             29  C  2 XZ      0.02596     0.04875
             30  C  2 YZ      0.01442     0.02730
             31  O  3  S      1.99556     1.97753
             32  O  3  S      0.91248     0.72279
             33  O  3  X      1.01600     0.96875
             34  O  3  Y      0.87416     0.83016
             35  O  3  Z      0.95692     0.91909
             36  O  3  S      0.95421     0.45840
             37  O  3  X      0.58672     0.61403
             38  O  3  Y      0.59776     0.62857
             39  O  3  Z      0.64373     0.66638
             40  O  3 XX      0.01707     0.18334
             41  O  3 YY      0.00804     0.17703
             42  O  3 ZZ      0.00480     0.17647
             43  O  3 XY      0.01315     0.01715
             44  O  3 XZ      0.01041     0.01551
             45  O  3 YZ      0.00200     0.00604
             46  H  4  S      0.52803     0.48537
             47  H  4  S      0.23582     0.33175
             48  F  5  S      1.99537     1.97785
             49  F  5  S      0.97272     0.85440
             50  F  5  X      0.97890     0.93190
             51  F  5  Y      1.12194     1.08757
             52  F  5  Z      1.19466     1.16787
             53  F  5  S      0.87529     0.50809
             54  F  5  X      0.65779     0.67376
             55  F  5  Y      0.72707     0.75197
             56  F  5  Z      0.75720     0.77840
             57  F  5 XX      0.04554     0.17047
             58  F  5 YY      0.03168     0.16469
             59  F  5 ZZ      0.02743     0.16100
             60  F  5 XY      0.00605     0.00817
             61  F  5 XZ      0.00300     0.00850
             62  F  5 YZ      0.00086     0.00261
             63  H  6  S      0.51955     0.48318
             64  H  6  S      0.28329     0.34251
             65  H  7  S      0.33947     0.30932
             66  H  7  S      0.25855     0.32163

          ----- MULLIKEN ATOMIC OVERLAP POPULATIONS -----
          (OFF-DIAGONAL ELEMENTS NEED TO BE MULTIPLIED BY 2)

             1           2           3           4           5

    1    5.2234775
    2    0.3321234   4.8432414
    3   -0.1830560   0.3494265   8.3904240
    4   -0.0256491   0.3713064  -0.0333931   0.4401239
    5    0.1975319  -0.0327041   0.0018555   0.0004525   9.2585938
    6    0.3724023  -0.0509298   0.0023921   0.0008748  -0.0271069
    7    0.2559248  -0.1384619   0.0653657   0.0101388  -0.0031180

             6           7

    6    0.5187315
    7   -0.0135220   0.4217004

          TOTAL MULLIKEN AND LOWDIN ATOMIC POPULATIONS
       ATOM         MULL.POP.    CHARGE          LOW.POP.     CHARGE
    1 C             6.172755   -0.172755         6.254268   -0.254268
    2 C             5.674002    0.325998         5.863495    0.136505
    3 O             8.593015   -0.593015         8.361232   -0.361232
    4 H             0.763854    0.236146         0.817117    0.182883
    5 F             9.395505   -0.395505         9.247253   -0.247253
    6 H             0.802842    0.197158         0.825686    0.174314
    7 H             0.598028    0.401972         0.630948    0.369052

          -------------------------------
          BOND ORDER AND VALENCE ANALYSIS     BOND ORDER THRESHOLD=0.050
          -------------------------------

                   BOND                       BOND                       BOND
  ATOM PAIR DIST  ORDER      ATOM PAIR DIST  ORDER      ATOM PAIR DIST  ORDER
    1   2  1.432  1.147        1   3  2.150  0.052        1   5  1.358  0.823
    1   6  1.085  0.904        1   7  1.521  0.462        2   3  1.249  1.418
    2   4  1.079  0.906        3   7  1.219  0.360

                       TOTAL       BONDED        FREE
      ATOM            VALENCE     VALENCE     VALENCE
    1 C                 3.385       3.385      -0.000
    2 C                 3.481       3.481       0.000
    3 O                 1.845       1.845       0.000
    4 H                 0.914       0.914       0.000
    5 F                 0.865       0.865       0.000
    6 H                 0.919       0.919       0.000
    7 H                 0.839       0.839      -0.000

          ---------------------
          ELECTROSTATIC MOMENTS
          ---------------------

 POINT   1           X           Y           Z (BOHR)    CHARGE
                -0.231171    0.066334    0.119017       -0.00 (A.U.)
         DX          DY          DZ         /D/  (DEBYE)
     1.079696   -0.545367    1.452394    1.890137
 ...... END OF PROPERTY EVALUATION ......
 STEP CPU TIME =     0.01 TOTAL CPU TIME =       34.4 (    0.6 MIN)
 TOTAL WALL CLOCK TIME=       36.5 SECONDS, CPU UTILIZATION IS  94.38%
  $VIB   
          IVIB=   0 IATOM=   0 ICOORD=   0 E=     -251.6090641663
  2.469104652E-05 2.736617303E-05 1.190658073E-05-2.218252424E-05-5.749905046E-05
  2.915027233E-05 1.012707047E-05 3.572525645E-05-1.957549126E-05-1.105137181E-05
  2.295882746E-05-1.371778971E-05-1.247081755E-05-6.646868977E-06 9.698709634E-06
 -1.281328541E-06-2.126049890E-05-2.437031563E-05 1.216791761E-05-6.438394950E-07
  6.908034340E-06
  1.079696110E+00-5.453672075E-01 1.452393841E+00
 ......END OF GEOMETRY SEARCH......
 STEP CPU TIME =     0.00 TOTAL CPU TIME =       34.4 (    0.6 MIN)
 TOTAL WALL CLOCK TIME=       36.5 SECONDS, CPU UTILIZATION IS  94.38%
               998016  WORDS OF DYNAMIC MEMORY USED
 EXECUTION OF GAMESS TERMINATED NORMALLY Fri Nov  3 17:33:02 2017
 DDI: 263640 bytes (0.3 MB / 0 MWords) used by master data server.

 ----------------------------------------
 CPU timing information for all processes
 ========================================
 0: 32.941 + 1.508 = 34.450
 ----------------------------------------
 ddikick.x: exited gracefully.
