
 Distributed Data Interface kickoff program.
 Initiating 1 compute processes on 1 nodes to run the following command:
 /usr/local/gamess-141205/gamess.00.x /home/webmodemo/webmo/guest/344666/input 

          ******************************************************
          *         GAMESS VERSION =  5 DEC 2014 (R1)          *
          *             FROM IOWA STATE UNIVERSITY             *
          * M.W.SCHMIDT, K.K.BALDRIDGE, J.A.BOATZ, S.T.ELBERT, *
          *   M.S.GORDON, J.H.JENSEN, S.KOSEKI, N.MATSUNAGA,   *
          *          K.A.NGUYEN, S.J.SU, T.L.WINDUS,           *
          *       TOGETHER WITH M.DUPUIS, J.A.MONTGOMERY       *
          *         J.COMPUT.CHEM.  14, 1347-1363(1993)        *
          **************** 64 BIT LINUX VERSION ****************

  SINCE 1993, STUDENTS AND POSTDOCS WORKING AT IOWA STATE UNIVERSITY
  AND ALSO IN THEIR VARIOUS JOBS AFTER LEAVING ISU HAVE MADE IMPORTANT
  CONTRIBUTIONS TO THE CODE:
     IVANA ADAMOVIC, CHRISTINE AIKENS, YURI ALEXEEV, POOJA ARORA,
     ANDREY ASADCHEV, ROB BELL, PRADIPTA BANDYOPADHYAY, JONATHAN BENTZ,
     BRETT BODE, KURT BRORSEN, CALEB CARLIN, GALINA CHABAN, WEI CHEN,
     CHEOL HO CHOI, PAUL DAY, ALBERT DEFUSCO, NUWAN DESILVA, TIM DUDLEY,
     DMITRI FEDOROV, GRAHAM FLETCHER, MARK FREITAG, KURT GLAESEMANN,
     DAN KEMP, GRANT MERRILL, NORIYUKI MINEZAWA, JONATHAN MULLIN,
     TAKESHI NAGATA, SEAN NEDD, HEATHER NETZLOFF, BOSILJKA NJEGIC, RYAN OLSON,
     MIKE PAK, SPENCER PRUITT, LUKE ROSKOP, JIM SHOEMAKER, LYUDMILA SLIPCHENKO,
     TONY SMITH, SAROM SOK, JIE SONG, TETSUYA TAKETSUGU, SIMON WEBB,
     PENG XU, SOOHAENG YOO, FEDERICO ZAHARIEV

  ADDITIONAL CODE HAS BEEN PROVIDED BY COLLABORATORS IN OTHER GROUPS:
     IOWA STATE UNIVERSITY:
          JOE IVANIC, AARON WEST, LAIMUTIS BYTAUTAS, KLAUS RUEDENBERG
     UNIVERSITY OF TOKYO: KIMIHIKO HIRAO, TAKAHITO NAKAJIMA,
          TAKAO TSUNEDA, MUNEAKI KAMIYA, SUSUMU YANAGISAWA,
          KIYOSHI YAGI, MAHITO CHIBA, SEIKEN TOKURA, NAOAKI KAWAKAMI
     UNIVERSITY OF AARHUS: FRANK JENSEN
     UNIVERSITY OF IOWA: VISVALDAS KAIRYS, HUI LI
     NATIONAL INST. OF STANDARDS AND TECHNOLOGY: WALT STEVENS, DAVID GARMER
     UNIVERSITY OF PISA: BENEDETTA MENNUCCI, JACOPO TOMASI
     UNIVERSITY OF MEMPHIS: HENRY KURTZ, PRAKASHAN KORAMBATH
     UNIVERSITY OF ALBERTA: TOBY ZENG, MARIUSZ KLOBUKOWSKI
     UNIVERSITY OF NEW ENGLAND: MARK SPACKMAN
     MIE UNIVERSITY: HIROAKI UMEDA
     NAT. INST. OF ADVANCED INDUSTRIAL SCIENCE AND TECHNOLOGY: KAZUO KITAURA
     MICHIGAN STATE UNIVERSITY:
          KAROL KOWALSKI, MARTA WLOCH, JEFFREY GOUR, JESSE LUTZ,
          WEI LI, PIOTR PIECUCH
     UNIVERSITY OF SILESIA: MONIKA MUSIAL, STANISLAW KUCHARSKI
     FACULTES UNIVERSITAIRES NOTRE-DAME DE LA PAIX:
          OLIVIER QUINET, BENOIT CHAMPAGNE
     UNIVERSITY OF CALIFORNIA - SANTA BARBARA: BERNARD KIRTMAN
     INSTITUTE FOR MOLECULAR SCIENCE:
          KAZUYA ISHIMURA, MICHIO KATOUDA, AND SHIGERU NAGASE
     UNIVERSITY OF NOTRE DAME: ANNA POMOGAEVA, DAN CHIPMAN
     KYUSHU UNIVERSITY:
          HARUYUKI NAKANO,
          FENG LONG GU, JACEK KORCHOWIEC, MARCIN MAKOWSKI, AND YURIKO AOKI,
          HIROTOSHI MORI AND EISAKU MIYOSHI
     PENNSYLVANIA STATE UNIVERSITY:
          TZVETELIN IORDANOV, CHET SWALINA, JONATHAN SKONE,
          SHARON HAMMES-SCHIFFER
     WASEDA UNIVERSITY:
          MASATO KOBAYASHI, TOMOKO AKAMA, TSUGUKI TOUMA,
          TAKESHI YOSHIKAWA, YASUHIRO IKABATA, HIROMI NAKAI
     NANJING UNIVERSITY: SHUHUA LI
     UNIVERSITY OF NEBRASKA:
          PEIFENG SU, DEJUN SI, NANDUN THELLAMUREGE, YALI WANG, HUI LI
     UNIVERSITY OF ZURICH: ROBERTO PEVERATI, KIM BALDRIDGE
     N. COPERNICUS UNIVERSITY AND JACKSON STATE UNIVERSITY:
          MARIA BARYSZ
     UNIVERSITY OF COPENHAGEN: CASPER STEINMANN
     TOKYO INSTITUTE OF TECHNOLOGY: HIROYA NAKATA
     NAGOYA UNIVERSITY: YOSHIO NISHIMOTO, STEPHAN IRLE

 EXECUTION OF GAMESS BEGUN Fri Nov  3 17:47:44 2017

            ECHO OF THE FIRST FEW INPUT CARDS -
 INPUT CARD> $CONTRL SCFTYP=RHF MPLEVL=2 RUNTYP=ENERGY                                      
 INPUT CARD>       ICHARG=0 MULT=1 COORD=ZMTMPC $END                                        
 INPUT CARD> $BASIS GBASIS=N31 NGAUSS=6 NDFUNC=1 $END                                       
 INPUT CARD> $DATA                                                                          
 INPUT CARD>C2H3OF                                                                          
 INPUT CARD>C1 1                                                                            
 INPUT CARD>C 0.0000000 0 0.0000000 0 0.0000000 0 0 0 0                                     
 INPUT CARD>C 1.4322699 1 0.0000000 0 0.0000000 0 1 0 0                                     
 INPUT CARD>O 1.2489173 1 106.44013 1 0.0000000 0 2 1 0                                     
 INPUT CARD>H 1.0786048 1 132.72068 1 -179.02257 1 2 1 3                                    
 INPUT CARD>F 1.3577871 1 117.98379 1 153.60663 1 1 2 3                                     
 INPUT CARD>H 1.0846043 1 108.92215 1 -79.760727 1 1 2 3                                    
 INPUT CARD>H 1.5214855 1 66.844091 1 8.4661084 1 1 2 3                                     
 INPUT CARD> $END                                                                           
 INPUT CARD>                                                                                
    1000000 WORDS OF MEMORY AVAILABLE

     BASIS OPTIONS
     -------------
     GBASIS=N31          IGAUSS=       6      POLAR=POPN31  
     NDFUNC=       1     NFFUNC=       0     DIFFSP=       F
     NPFUNC=       0      DIFFS=       F     BASNAM=        


     RUN TITLE
     ---------
 C2H3OF                                                                          

 THE POINT GROUP OF THE MOLECULE IS C1      
 THE ORDER OF THE PRINCIPAL AXIS IS     1

 YOUR FULLY SUBSTITUTED Z-MATRIX IS
 C   
 C      1   1.4322699
 O      2   1.2489173  1  106.4401
 H      2   1.0786048  1  132.7207  3 -179.0226  0
 F      1   1.3577871  2  117.9838  3  153.6066  0
 H      1   1.0846043  2  108.9222  3  -79.7607  0
 H      1   1.5214855  2   66.8441  3    8.4661  0

 THE MOMENTS OF INERTIA ARE (AMU-ANGSTROM**2)
 IXX=    12.602   IYY=   109.980   IZZ=   117.571

 ATOM      ATOMIC                      COORDINATES (BOHR)
           CHARGE         X                   Y                   Z
 C           6.0    -0.7928124612        0.7586467910        0.2920614363
 C           6.0     1.2862678509       -0.9737561029        0.2487472806
 O           8.0     3.2081284767        0.3016424704       -0.2511891198
 H           1.0     1.4128228406       -2.9892076648        0.5252853856
 F           9.0    -3.1322726481       -0.1548593670       -0.2332917925
 H           1.0    -0.8019535399        1.7411142174        2.0908261720
 H           1.0     1.6444604912        1.9413167496       -0.6711175836

          INTERNUCLEAR DISTANCES (ANGS.)
          ------------------------------

                1 C          2 C          3 O          4 H          5 F     

   1 C       0.0000000    1.4322699 *  2.1502773 *  2.3045431 *  1.3577871 *
   2 C       1.4322699 *  0.0000000    1.2489173 *  1.0786048 *  2.3916501 *
   3 O       2.1502773 *  1.2489173 *  0.0000000    2.0258388 *  3.3638945  
   4 H       2.3045431 *  1.0786048 *  2.0258388 *  0.0000000    2.8627884 *
   5 F       1.3577871 *  2.3916501 *  3.3638945    2.8627884 *  0.0000000  
   6 H       1.0846043 *  2.0579787 *  2.5727960 *  2.8854526 *  2.0099422 *
   7 H       1.5214855 *  1.6286373 *  1.2193981 *  2.6876322 *  2.7701216 *

                6 H          7 H     

   1 C       1.0846043 *  1.5214855 *
   2 C       2.0579787 *  1.6286373 *
   3 O       2.5727960 *  1.2193981 *
   4 H       2.8854526 *  2.6876322 *
   5 F       2.0099422 *  2.7701216 *
   6 H       0.0000000    1.9553336 *
   7 H       1.9553336 *  0.0000000  

  * ... LESS THAN  3.000


     ATOMIC BASIS SET
     ----------------
 THE CONTRACTED PRIMITIVE FUNCTIONS HAVE BEEN UNNORMALIZED
 THE CONTRACTED BASIS FUNCTIONS ARE NOW NORMALIZED TO UNITY

  SHELL TYPE  PRIMITIVE        EXPONENT          CONTRACTION COEFFICIENT(S)

 C         

      1   S       1          3047.5248800    0.001834737132
      1   S       2           457.3695180    0.014037322813
      1   S       3           103.9486850    0.068842622264
      1   S       4            29.2101553    0.232184443216
      1   S       5             9.2866630    0.467941348435
      1   S       6             3.1639270    0.362311985337

      2   L       7             7.8682723   -0.119332419775    0.068999066591
      2   L       8             1.8812885   -0.160854151696    0.316423960957
      2   L       9             0.5442493    1.143456437840    0.744308290898

      3   L      10             0.1687145    1.000000000000    1.000000000000

      4   D      11             0.8000000    1.000000000000

 C         

      5   S      12          3047.5248800    0.001834737132
      5   S      13           457.3695180    0.014037322813
      5   S      14           103.9486850    0.068842622264
      5   S      15            29.2101553    0.232184443216
      5   S      16             9.2866630    0.467941348435
      5   S      17             3.1639270    0.362311985337

      6   L      18             7.8682723   -0.119332419775    0.068999066591
      6   L      19             1.8812885   -0.160854151696    0.316423960957
      6   L      20             0.5442493    1.143456437840    0.744308290898

      7   L      21             0.1687145    1.000000000000    1.000000000000

      8   D      22             0.8000000    1.000000000000

 O         

      9   S      23          5484.6716600    0.001831074430
      9   S      24           825.2349460    0.013950172200
      9   S      25           188.0469580    0.068445078098
      9   S      26            52.9645000    0.232714335992
      9   S      27            16.8975704    0.470192897984
      9   S      28             5.7996353    0.358520852987

     10   L      29            15.5396162   -0.110777549525    0.070874268231
     10   L      30             3.5999336   -0.148026262701    0.339752839147
     10   L      31             1.0137618    1.130767015354    0.727158577316

     11   L      32             0.2700058    1.000000000000    1.000000000000

     12   D      33             0.8000000    1.000000000000

 H         

     13   S      34            18.7311370    0.033494604338
     13   S      35             2.8253944    0.234726953484
     13   S      36             0.6401217    0.813757326146

     14   S      37             0.1612778    1.000000000000

 F         

     15   S      38          7001.7130900    0.001819616901
     15   S      39          1051.3660900    0.013916079607
     15   S      40           239.2856900    0.068405324535
     15   S      41            67.3974453    0.233185760119
     15   S      42            21.5199573    0.471267439240
     15   S      43             7.4031013    0.356618546182

     16   L      44            20.8479528   -0.108506975109    0.071628724237
     16   L      45             4.8083083   -0.146451658147    0.345912102697
     16   L      46             1.3440699    1.128688581135    0.722469956367

     17   L      47             0.3581514    1.000000000000    1.000000000000

     18   D      48             0.8000000    1.000000000000

 H         

     19   S      49            18.7311370    0.033494604338
     19   S      50             2.8253944    0.234726953484
     19   S      51             0.6401217    0.813757326146

     20   S      52             0.1612778    1.000000000000

 H         

     21   S      53            18.7311370    0.033494604338
     21   S      54             2.8253944    0.234726953484
     21   S      55             0.6401217    0.813757326146

     22   S      56             0.1612778    1.000000000000

 TOTAL NUMBER OF BASIS SET SHELLS             =   22
 NUMBER OF CARTESIAN GAUSSIAN BASIS FUNCTIONS =   66
 NUMBER OF ELECTRONS                          =   32
 CHARGE OF MOLECULE                           =    0
 SPIN MULTIPLICITY                            =    1
 NUMBER OF OCCUPIED ORBITALS (ALPHA)          =   16
 NUMBER OF OCCUPIED ORBITALS (BETA )          =   16
 TOTAL NUMBER OF ATOMS                        =    7
 THE NUCLEAR REPULSION ENERGY IS      116.2098389111

     $CONTRL OPTIONS
     ---------------
 SCFTYP=RHF          RUNTYP=ENERGY       EXETYP=RUN     
 MPLEVL=       2     CITYP =NONE         CCTYP =NONE         VBTYP =NONE    
 DFTTYP=NONE         TDDFT =NONE    
 MULT  =       1     ICHARG=       0     NZVAR =       0     COORD =ZMTMPC  
 PP    =NONE         RELWFN=NONE         LOCAL =NONE         NUMGRD=       F
 ISPHER=      -1     NOSYM =       0     MAXIT =      30     UNITS =ANGS    
 PLTORB=       F     MOLPLT=       F     AIMPAC=       F     FRIEND=        
 NPRINT=       7     IREST =       0     GEOM  =INPUT   
 NORMF =       0     NORMP =       0     ITOL  =      20     ICUT  =       9
 INTTYP=BEST         GRDTYP=BEST         QMTTOL= 1.0E-06

     $SYSTEM OPTIONS
     ---------------
  REPLICATED MEMORY=     1000000 WORDS (ON EVERY NODE).
 DISTRIBUTED MEMDDI=           0 MILLION WORDS IN AGGREGATE,
 MEMDDI DISTRIBUTED OVER   1 PROCESSORS IS           0 WORDS/PROCESSOR.
 TOTAL MEMORY REQUESTED ON EACH PROCESSOR=     1000000 WORDS.
 TIMLIM=      525600.00 MINUTES, OR     365.0 DAYS.
 PARALL= F  BALTYP=  DLB     KDIAG=    0  COREFL= F
 MXSEQ2=     300 MXSEQ3=     150  mem10=         0

          ----------------
          PROPERTIES INPUT
          ----------------

     MOMENTS            FIELD           POTENTIAL          DENSITY
 IEMOM =       1   IEFLD =       0   IEPOT =       0   IEDEN =       0
 WHERE =COMASS     WHERE =NUCLEI     WHERE =NUCLEI     WHERE =NUCLEI  
 OUTPUT=BOTH       OUTPUT=BOTH       OUTPUT=BOTH       OUTPUT=BOTH    
 IEMINT=       0   IEFINT=       0                     IEDINT=       0
                                                       MORB  =       0
          EXTRAPOLATION IN EFFECT
          SOSCF IN EFFECT
 ORBITAL PRINTING OPTION: NPREO=     1    66     2     1

     -------------------------------
     INTEGRAL TRANSFORMATION OPTIONS
     -------------------------------
     NWORD  =            0
     CUTOFF = 1.0E-09     MPTRAN =       0
     DIRTRF =       F     AOINTS =DUP     

          ----------------------
          INTEGRAL INPUT OPTIONS
          ----------------------
 NOPK  =       1 NORDER=       0 SCHWRZ=       T

          -----------------------
          MP2 CONTROL INFORMATION
          -----------------------
          NACORE =        4  NBCORE =        4
          LMOMP2 =        F  AOINTS = DUP     
          METHOD =        2  NWORD  =               0
          MP2PRP =        F  OSPT   = NONE    
          CUTOFF = 1.00E-09  CPHFBS = BASISAO 
          CODE   = IMS     

          NUMBER OF CORE -A-  ORBITALS =     4
          NUMBER OF CORE -B-  ORBITALS =     4
          NUMBER OF OCC. -A-  ORBITALS =    16
          NUMBER OF OCC. -B-  ORBITALS =    16
          NUMBER OF MOLECULAR ORBITALS =    66
          NUMBER OF   BASIS  FUNCTIONS =    66


   --- ENCODED Z MATRIX ---
 COORD  TYPE   I   J   K   L   M   N
    1      1    2   1
    2      1    3   2
    3      2    3   2   1
    4      1    4   2
    5      2    4   2   1
    6      3    4   2   1   3
    7      1    5   1
    8      2    5   1   2
    9      3    5   1   2   3
   10      1    6   1
   11      2    6   1   2
   12      3    6   1   2   3
   13      1    7   1
   14      2    7   1   2
   15      3    7   1   2   3

 THE DETERMINANT OF THE G MATRIX IS 10**(   -11)

     ------------------------------------------
     THE POINT GROUP IS C1 , NAXIS= 1, ORDER= 1
     ------------------------------------------

     DIMENSIONS OF THE SYMMETRY SUBSPACES ARE
 A   =   66

 ..... DONE SETTING UP THE RUN .....
 STEP CPU TIME =     0.01 TOTAL CPU TIME =        0.0 (    0.0 MIN)
 TOTAL WALL CLOCK TIME=        0.0 SECONDS, CPU UTILIZATION IS  50.00%

          ********************
          1 ELECTRON INTEGRALS
          ********************
 ...... END OF ONE-ELECTRON INTEGRALS ......
 STEP CPU TIME =     0.00 TOTAL CPU TIME =        0.0 (    0.0 MIN)
 TOTAL WALL CLOCK TIME=        0.0 SECONDS, CPU UTILIZATION IS  50.00%

          -------------
          GUESS OPTIONS
          -------------
          GUESS =HUCKEL            NORB  =       0          NORDER=       0
          MIX   =       F          PRTMO =       F          PUNMO =       F
          TOLZ  = 1.0E-08          TOLE  = 1.0E-05
          SYMDEN=       F          PURIFY=       F

 INITIAL GUESS ORBITALS GENERATED BY HUCKEL   ROUTINE.
 HUCKEL GUESS REQUIRES     39109 WORDS.

 SYMMETRIES FOR INITIAL GUESS ORBITALS FOLLOW.   BOTH SET(S).
    16 ORBITALS ARE OCCUPIED (    4 CORE ORBITALS).
     5=A        6=A        7=A        8=A        9=A       10=A       11=A   
    12=A       13=A       14=A       15=A       16=A       17=A       18=A   
    19=A       20=A       21=A       22=A       23=A       24=A       25=A   
    26=A   
 ...... END OF INITIAL ORBITAL SELECTION ......
 STEP CPU TIME =     0.00 TOTAL CPU TIME =        0.0 (    0.0 MIN)
 TOTAL WALL CLOCK TIME=        0.0 SECONDS, CPU UTILIZATION IS  50.00%

                    ----------------------
                    AO INTEGRAL TECHNOLOGY
                    ----------------------
     S,P,L SHELL ROTATED AXIS INTEGRALS, REPROGRAMMED BY
        KAZUYA ISHIMURA (IMS) AND JOSE SIERRA (SYNSTAR).
     S,P,D,L SHELL ROTATED AXIS INTEGRALS PROGRAMMED BY
        KAZUYA ISHIMURA (INSTITUTE FOR MOLECULAR SCIENCE).
     S,P,D,F,G SHELL TO TOTAL QUARTET ANGULAR MOMENTUM SUM 5,
        ERIC PROGRAM BY GRAHAM FLETCHER (ELORET AND NASA ADVANCED
        SUPERCOMPUTING DIVISION, AMES RESEARCH CENTER).
     S,P,D,F,G,L SHELL GENERAL RYS QUADRATURE PROGRAMMED BY
        MICHEL DUPUIS (PACIFIC NORTHWEST NATIONAL LABORATORY).

          --------------------
          2 ELECTRON INTEGRALS
          --------------------

 THE -PK- OPTION IS OFF, THE INTEGRALS ARE NOT IN SUPERMATRIX FORM.
 STORING   15000 INTEGRALS/RECORD ON DISK, USING 12 BYTES/INTEGRAL.
 TWO ELECTRON INTEGRAL EVALUATION REQUIRES   90649 WORDS OF MEMORY.
 SCHWARZ INEQUALITY OVERHEAD:      2205 INTEGRALS, T=        0.00
 II,JST,KST,LST =  1  1  1  1 NREC =         1 INTLOC =    1
 II,JST,KST,LST =  2  1  1  1 NREC =         1 INTLOC =    2
 II,JST,KST,LST =  3  1  1  1 NREC =         1 INTLOC =   34
 II,JST,KST,LST =  4  1  1  1 NREC =         1 INTLOC =  214
 II,JST,KST,LST =  5  1  1  1 NREC =         1 INTLOC = 1189
 II,JST,KST,LST =  6  1  1  1 NREC =         1 INTLOC = 3237
 II,JST,KST,LST =  7  1  1  1 NREC =         2 INTLOC =  988
 II,JST,KST,LST =  8  1  1  1 NREC =         3 INTLOC = 8247
 II,JST,KST,LST =  9  1  1  1 NREC =         7 INTLOC = 6187
 II,JST,KST,LST = 10  1  1  1 NREC =         8 INTLOC = 5357
 II,JST,KST,LST = 11  1  1  1 NREC =        13 INTLOC = 5206
 II,JST,KST,LST = 12  1  1  1 NREC =        20 INTLOC = 5099
 II,JST,KST,LST = 13  1  1  1 NREC =        35 INTLOC = 5630
 II,JST,KST,LST = 14  1  1  1 NREC =        38 INTLOC = 9138
 II,JST,KST,LST = 15  1  1  1 NREC =        42 INTLOC =  998
 II,JST,KST,LST = 16  1  1  1 NREC =        44 INTLOC = 5853
 II,JST,KST,LST = 17  1  1  1 NREC =        56 INTLOC =14503
 II,JST,KST,LST = 18  1  1  1 NREC =        76 INTLOC =14353
 II,JST,KST,LST = 19  1  1  1 NREC =       111 INTLOC = 9106
 II,JST,KST,LST = 20  1  1  1 NREC =       119 INTLOC = 5337
 II,JST,KST,LST = 21  1  1  1 NREC =       127 INTLOC =10357
 II,JST,KST,LST = 22  1  1  1 NREC =       136 INTLOC = 2155
 SCHWARZ INEQUALITY TEST SKIPPED        2604 INTEGRAL BLOCKS.
 TOTAL NUMBER OF NONZERO TWO-ELECTRON INTEGRALS =             2164329
        145 INTEGRAL RECORDS WERE STORED ON DISK FILE  8.
  ...... END OF TWO-ELECTRON INTEGRALS .....
 STEP CPU TIME =     0.18 TOTAL CPU TIME =        0.2 (    0.0 MIN)
 TOTAL WALL CLOCK TIME=        0.2 SECONDS, CPU UTILIZATION IS  95.00%

          --------------------------
                 RHF SCF CALCULATION
          --------------------------

     NUCLEAR ENERGY =       116.2098389111
     MAXIT =   30     NPUNCH=    2
     EXTRAP=T  DAMP=F  SHIFT=F  RSTRCT=F  DIIS=F  DEM=F  SOSCF=T
     DENSITY MATRIX CONV=  1.00E-06
     SOSCF WILL OPTIMIZE     800 ORBITAL ROTATIONS, SOGTOL=   0.250
     MEMORY REQUIRED FOR RHF ITERS=     64616 WORDS.

 ITER EX DEM     TOTAL ENERGY        E CHANGE  DENSITY CHANGE     ORB. GRAD
   1  0  0     -250.8460637385  -250.8460637385   0.314316750   0.000000000
          ---------------START SECOND ORDER SCF---------------
   2  1  0     -251.5620939741    -0.7160302356   0.115944744   0.043072392
   3  2  0     -251.6001202188    -0.0380262447   0.052001229   0.019363999
   4  3  0     -251.6080530464    -0.0079328277   0.011770271   0.003966338
   5  4  0     -251.6087383813    -0.0006853349   0.009230391   0.004171185
   6  5  0     -251.6089913415    -0.0002529602   0.004609180   0.001441383
   7  6  0     -251.6090506831    -0.0000593415   0.001891468   0.000510885
   8  7  0     -251.6090618264    -0.0000111433   0.001243124   0.000235722
   9  8  0     -251.6090639350    -0.0000021085   0.000276518   0.000070978
  10  9  0     -251.6090641291    -0.0000001941   0.000061771   0.000027518
  11 10  0     -251.6090641618    -0.0000000327   0.000036612   0.000011537
  12 11  0     -251.6090641664    -0.0000000046   0.000013625   0.000004453
  13 12  0     -251.6090641670    -0.0000000006   0.000003496   0.000001200
  14 13  0     -251.6090641671    -0.0000000001   0.000001234   0.000000295
  15 14  0     -251.6090641671    -0.0000000000   0.000000443   0.000000145

          -----------------
          DENSITY CONVERGED
          -----------------
     TIME TO FORM FOCK OPERATORS=       0.5 SECONDS (       0.0 SEC/ITER)
     TIME TO SOLVE SCF EQUATIONS=       0.0 SECONDS (       0.0 SEC/ITER)

 FINAL RHF ENERGY IS     -251.6090641671 AFTER  15 ITERATIONS

          ------------
          EIGENVECTORS
          ------------

                      1          2          3          4          5
                  -26.2795   -20.6305   -11.3747   -11.2866    -1.5889
                     A          A          A          A          A   
    1  C  1  S   -0.000019  -0.000000   0.005234   0.995824  -0.056225
    2  C  1  S    0.000238  -0.000014   0.000147   0.027018   0.096312
    3  C  1  X   -0.000516  -0.000060  -0.000109  -0.001336  -0.076086
    4  C  1  Y   -0.000218   0.000008   0.000142  -0.001369  -0.034579
    5  C  1  Z   -0.000123   0.000016   0.000055   0.000427  -0.014406
    6  C  1  S    0.000266  -0.000128   0.001938  -0.010929   0.027326
    7  C  1  X    0.000271   0.000064   0.000458  -0.002376  -0.002257
    8  C  1  Y   -0.000095   0.000181  -0.001172   0.000730   0.004987
    9  C  1  Z    0.000064  -0.000018  -0.000184  -0.001618  -0.000374
   10  C  1 XX    0.000255  -0.000057  -0.000452  -0.000729   0.017032
   11  C  1 YY    0.000007  -0.000017  -0.000180  -0.001682  -0.004612
   12  C  1 ZZ   -0.000057  -0.000023  -0.000113  -0.001710  -0.007154
   13  C  1 XY    0.000113   0.000020   0.000083   0.000271   0.012689
   14  C  1 XZ    0.000077   0.000001   0.000026   0.000198   0.005622
   15  C  1 YZ    0.000041  -0.000003  -0.000026   0.000172   0.003231
   16  C  2  S    0.000007   0.000005   0.995707  -0.005624  -0.011846
   17  C  2  S    0.000094   0.000485   0.026823  -0.000085   0.021114
   18  C  2  X    0.000012   0.000085   0.001178  -0.000007  -0.009837
   19  C  2  Y   -0.000012   0.000039   0.000735  -0.000105   0.010496
   20  C  2  Z    0.000000  -0.000012  -0.000451   0.000025  -0.001614
   21  C  2  S   -0.000358  -0.000089  -0.007680   0.003676   0.016828
   22  C  2  X    0.000197  -0.000445   0.001197  -0.001739  -0.009455
   23  C  2  Y   -0.000165  -0.000072   0.000794   0.000647   0.002249
   24  C  2  Z    0.000003   0.000087  -0.000155   0.000501  -0.000373
   25  C  2 XX   -0.000074  -0.000357  -0.001358  -0.000456   0.004616
   26  C  2 YY   -0.000017  -0.000220  -0.001301  -0.000339   0.000601
   27  C  2 ZZ    0.000012  -0.000075  -0.002616  -0.000091  -0.001634
   28  C  2 XY    0.000023  -0.000284   0.000294   0.000101  -0.001959
   29  C  2 XZ   -0.000004   0.000096  -0.000328  -0.000026  -0.000296
   30  C  2 YZ    0.000001   0.000087  -0.000262   0.000036  -0.000628
   31  O  3  S    0.000000   0.994669  -0.000252   0.000016  -0.008155
   32  O  3  S   -0.000001   0.021045   0.000529  -0.000046   0.018380
   33  O  3  X   -0.000002  -0.001319  -0.000156  -0.000040  -0.007006
   34  O  3  Y   -0.000006  -0.000379  -0.000068   0.000056  -0.001553
   35  O  3  Z    0.000006   0.000390   0.000041   0.000003   0.000917
   36  O  3  S    0.000026   0.004407  -0.001767   0.000004   0.014731
   37  O  3  X   -0.000036   0.000231   0.001522  -0.000171  -0.001321
   38  O  3  Y    0.000022  -0.000008   0.000580  -0.000515  -0.001581
   39  O  3  Z   -0.000010  -0.000109  -0.000295   0.000195   0.000477
   40  O  3 XX    0.000005  -0.003818  -0.000324   0.000187   0.001112
   41  O  3 YY    0.000002  -0.003995  -0.000004   0.000030   0.000250
   42  O  3 ZZ    0.000003  -0.004048   0.000400  -0.000002   0.000039
   43  O  3 XY    0.000006   0.000100  -0.000227   0.000058   0.000065
   44  O  3 XZ    0.000000  -0.000002   0.000127  -0.000092  -0.000209
   45  O  3 YZ   -0.000005  -0.000076   0.000136   0.000033  -0.000111
   46  H  4  S    0.000016  -0.000000  -0.000262  -0.000128   0.002294
   47  H  4  S   -0.000055  -0.000056   0.002260  -0.000163   0.000612
   48  F  5  S    0.994418  -0.000007  -0.000010  -0.000019  -0.220968
   49  F  5  S    0.017762  -0.000031  -0.000104   0.000875   0.514763
   50  F  5  X    0.000835   0.000003  -0.000048   0.000340   0.059153
   51  F  5  Y    0.000298  -0.000004   0.000029   0.000174   0.020623
   52  F  5  Z    0.000206  -0.000003   0.000006   0.000052   0.014227
   53  F  5  S    0.008218   0.000137   0.000051  -0.001957   0.436347
   54  F  5  X   -0.000574   0.000025   0.000103  -0.001666   0.036611
   55  F  5  Y   -0.000193   0.000020  -0.000001  -0.000881   0.010597
   56  F  5  Z   -0.000139   0.000018   0.000002  -0.000262   0.009924
   57  F  5 XX   -0.004981  -0.000018   0.000045  -0.000616   0.035663
   58  F  5 YY   -0.004618  -0.000024  -0.000039   0.000420   0.023393
   59  F  5 ZZ   -0.004576  -0.000015  -0.000136   0.000618   0.021996
   60  F  5 XY   -0.000189   0.000014  -0.000001  -0.000579   0.005471
   61  F  5 XZ   -0.000113   0.000002   0.000040  -0.000329   0.004015
   62  F  5 YZ   -0.000040   0.000004   0.000021  -0.000180   0.001825
   63  H  6  S   -0.000023   0.000004  -0.000070   0.000044   0.015103
   64  H  6  S   -0.000072  -0.000026   0.000473   0.002679   0.000202
   65  H  7  S   -0.000006   0.000240   0.000252   0.000193   0.005158
   66  H  7  S   -0.000034  -0.000367   0.000371   0.001488  -0.000634

                      6          7          8          9         10
                   -1.4725    -1.0084    -0.8615    -0.7565    -0.7043
                     A          A          A          A          A   
    1  C  1  S   -0.020692  -0.148242   0.069805  -0.046668   0.005015
    2  C  1  S    0.039087   0.282183  -0.127980   0.096919  -0.001211
    3  C  1  X    0.043132   0.104023   0.005328  -0.234497  -0.026148
    4  C  1  Y   -0.011558  -0.069870  -0.072601   0.033661  -0.166245
    5  C  1  Z   -0.001444   0.040364  -0.023931   0.082240  -0.197437
    6  C  1  S    0.039409   0.248392  -0.163766   0.063524  -0.051196
    7  C  1  X    0.018512   0.060639  -0.030263  -0.051789   0.005349
    8  C  1  Y    0.000519   0.005260  -0.022579   0.013210  -0.062225
    9  C  1  Z   -0.004034   0.021299  -0.010769   0.049045  -0.094530
   10  C  1 XX    0.002488   0.003302  -0.004639   0.006774   0.004104
   11  C  1 YY    0.001390   0.003233   0.006632  -0.005316   0.009657
   12  C  1 ZZ   -0.000816   0.001158  -0.003921   0.005296  -0.015814
   13  C  1 XY   -0.005881  -0.010431  -0.007282   0.015323   0.007693
   14  C  1 XZ   -0.001041  -0.001754   0.002209   0.005220   0.005953
   15  C  1 YZ    0.000305   0.005454  -0.005849   0.006309  -0.002306
   16  C  2  S   -0.103282  -0.108428  -0.120139   0.032072   0.005914
   17  C  2  S    0.195675   0.228220   0.258671  -0.070543  -0.018130
   18  C  2  X    0.117540  -0.191180   0.099145   0.058386  -0.168905
   19  C  2  Y    0.098759   0.047362  -0.225110  -0.181717  -0.085924
   20  C  2  Z   -0.032943   0.027607   0.017210   0.047569  -0.054215
   21  C  2  S    0.039093   0.165082   0.257680  -0.023310   0.019104
   22  C  2  X   -0.004427  -0.038119   0.004029   0.036143  -0.053803
   23  C  2  Y   -0.027609   0.002399  -0.071649  -0.052910  -0.047763
   24  C  2  Z    0.005972   0.004726   0.010654   0.011298  -0.028162
   25  C  2 XX    0.014610  -0.000950   0.001992   0.010176  -0.003356
   26  C  2 YY    0.003363   0.014752   0.014696  -0.006229   0.001729
   27  C  2 ZZ   -0.014341  -0.008211  -0.010190   0.002822   0.004520
   28  C  2 XY    0.022085  -0.021439   0.001429  -0.002468  -0.013155
   29  C  2 XZ   -0.009229   0.001945  -0.002089  -0.000499   0.003795
   30  C  2 YZ   -0.006536  -0.001290  -0.002966   0.006336  -0.006976
   31  O  3  S   -0.193133   0.082913   0.038638  -0.048123  -0.029113
   32  O  3  S    0.425125  -0.189969  -0.081090   0.123860   0.061487
   33  O  3  X   -0.122013  -0.087419  -0.021380   0.266826   0.143647
   34  O  3  Y   -0.042689   0.006847  -0.249221  -0.093809   0.130431
   35  O  3  Z    0.019306   0.015696   0.062924   0.032991  -0.156252
   36  O  3  S    0.409140  -0.242305  -0.153120   0.141274   0.144848
   37  O  3  X   -0.067979  -0.035584   0.006447   0.174113   0.072870
   38  O  3  Y   -0.003846  -0.000373  -0.138620  -0.061995   0.074471
   39  O  3  Z    0.006800   0.006375   0.032517   0.020199  -0.097216
   40  O  3 XX    0.018183   0.007122  -0.004553  -0.021172  -0.007567
   41  O  3 YY    0.005007  -0.005435   0.004247   0.010266   0.001946
   42  O  3 ZZ   -0.004039  -0.001768   0.004499   0.011514  -0.002530
   43  O  3 XY    0.001278   0.002602   0.024139   0.006433  -0.010339
   44  O  3 XZ   -0.002793  -0.003101  -0.004216   0.000762   0.013225
   45  O  3 YZ   -0.003917   0.001154  -0.001970  -0.001210   0.003159
   46  H  4  S    0.024016   0.063839   0.210092   0.059257   0.031051
   47  H  4  S   -0.013663   0.013461   0.083052   0.028880   0.010419
   48  F  5  S    0.016988   0.049479  -0.018294   0.040825   0.015345
   49  F  5  S   -0.038480  -0.114248   0.042049  -0.083381  -0.031750
   50  F  5  X    0.001004   0.130113  -0.071525   0.274554   0.319533
   51  F  5  Y   -0.001509   0.020449  -0.074504   0.200629  -0.162743
   52  F  5  Z   -0.000629   0.033380  -0.031234   0.176493  -0.234836
   53  F  5  S   -0.036942  -0.144227   0.060164  -0.164625  -0.061888
   54  F  5  X   -0.001491   0.078250  -0.046241   0.185271   0.221014
   55  F  5  Y    0.001077   0.015515  -0.046451   0.133655  -0.112477
   56  F  5  Z    0.000808   0.020054  -0.019950   0.114280  -0.156719
   57  F  5 XX   -0.001487   0.008162  -0.003663   0.018290   0.021407
   58  F  5 YY   -0.001212  -0.005000   0.000421   0.002958  -0.005375
   59  F  5 ZZ   -0.000912  -0.005166   0.002093   0.000840  -0.006317
   60  F  5 XY    0.000164   0.004072  -0.005131   0.013574  -0.002738
   61  F  5 XZ    0.000107   0.003989  -0.002429   0.010953  -0.006021
   62  F  5 YZ    0.000118   0.001153  -0.001613   0.005032  -0.004837
   63  H  6  S    0.006956   0.099736  -0.078122   0.086572  -0.140054
   64  H  6  S    0.001915   0.010871  -0.028339   0.044863  -0.079747
   65  H  7  S    0.063654   0.030985  -0.109121  -0.088405   0.024577
   66  H  7  S   -0.012344  -0.006509  -0.042073  -0.015445   0.027917

                     11         12         13         14         15
                   -0.6838    -0.6495    -0.6196    -0.5551    -0.5136
                     A          A          A          A          A   
    1  C  1  S   -0.007484  -0.009396  -0.021833   0.045650  -0.020574
    2  C  1  S    0.016243   0.021095   0.038792  -0.081057   0.055108
    3  C  1  X   -0.117357   0.051964   0.058201  -0.057061   0.162967
    4  C  1  Y    0.030192   0.126998   0.013901  -0.144157  -0.225930
    5  C  1  Z   -0.142249  -0.027525   0.056528  -0.132497  -0.087454
    6  C  1  S   -0.011072   0.033416   0.060588  -0.188466  -0.007386
    7  C  1  X   -0.021218   0.006523   0.054020  -0.044221  -0.029564
    8  C  1  Y    0.039968   0.077358  -0.001431  -0.032152  -0.086294
    9  C  1  Z   -0.075146  -0.035443   0.006637  -0.045805  -0.026919
   10  C  1 XX    0.017813  -0.003565  -0.011996   0.023096   0.009358
   11  C  1 YY   -0.011136  -0.004932   0.000973  -0.001798   0.004579
   12  C  1 ZZ   -0.007392   0.009032   0.009398  -0.023196  -0.013879
   13  C  1 XY    0.007156  -0.011944  -0.005126   0.001859  -0.028238
   14  C  1 XZ    0.005818   0.004006   0.015340   0.002119  -0.002448
   15  C  1 YZ    0.003536   0.002808   0.005788  -0.016734  -0.010292
   16  C  2  S   -0.002420  -0.011071   0.010230  -0.021997  -0.026399
   17  C  2  S    0.012371   0.017331  -0.025742   0.050477   0.064784
   18  C  2  X    0.209377  -0.097706   0.020812  -0.046156  -0.247507
   19  C  2  Y    0.140864  -0.196092   0.102601   0.012197   0.209361
   20  C  2  Z   -0.117367   0.023146   0.172276   0.157573  -0.044447
   21  C  2  S   -0.025606   0.091677  -0.027322   0.081921   0.182923
   22  C  2  X    0.041512   0.001593   0.014797  -0.034830  -0.077521
   23  C  2  Y    0.059503  -0.049996   0.046216   0.014135   0.180009
   24  C  2  Z   -0.047237   0.002626   0.089406   0.104480  -0.039347
   25  C  2 XX    0.012373  -0.018960   0.015023  -0.005220   0.024125
   26  C  2 YY   -0.012941   0.021441  -0.010744   0.019007  -0.029001
   27  C  2 ZZ   -0.002491   0.003191  -0.008804  -0.009855   0.001232
   28  C  2 XY    0.017011  -0.012560   0.002391   0.009923  -0.019075
   29  C  2 XZ   -0.005646   0.003304   0.015447   0.021585  -0.001474
   30  C  2 YZ   -0.007677  -0.003490   0.018767   0.004518   0.003650
   31  O  3  S    0.038334  -0.006014  -0.011964   0.006831  -0.019859
   32  O  3  S   -0.082128   0.018135   0.030560  -0.029159   0.056525
   33  O  3  X   -0.271420   0.126737   0.162573  -0.098441   0.266271
   34  O  3  Y   -0.222994   0.159738  -0.071991   0.275780  -0.204414
   35  O  3  Z    0.004306  -0.086382   0.383066   0.316260  -0.028580
   36  O  3  S   -0.188078   0.013264   0.030806   0.011090   0.026429
   37  O  3  X   -0.146683   0.075110   0.126188  -0.092242   0.226262
   38  O  3  Y   -0.135836   0.110024  -0.051330   0.211259  -0.169428
   39  O  3  Z   -0.005116  -0.057457   0.273725   0.238383  -0.031283
   40  O  3 XX    0.016604  -0.005822  -0.013979   0.004919  -0.009561
   41  O  3 YY   -0.002046   0.006961  -0.002951  -0.008685  -0.001337
   42  O  3 ZZ   -0.003695   0.002094   0.012560   0.000355   0.006690
   43  O  3 XY    0.018207  -0.012807   0.003857  -0.021597   0.013972
   44  O  3 XZ   -0.001019   0.007221  -0.026743  -0.022533   0.004192
   45  O  3 YZ   -0.000189   0.001723  -0.006767  -0.006637   0.003039
   46  H  4  S   -0.081225   0.134959  -0.067839   0.047060  -0.143074
   47  H  4  S   -0.049052   0.091433  -0.047283   0.035497  -0.109384
   48  F  5  S    0.015619  -0.007018  -0.004629   0.000631   0.002078
   49  F  5  S   -0.029607   0.014364  -0.002567   0.000021   0.010164
   50  F  5  X    0.194598  -0.221666   0.045629   0.058882  -0.184119
   51  F  5  Y    0.289199   0.365933  -0.115048   0.222104   0.220152
   52  F  5  Z   -0.201533  -0.300432  -0.370760   0.188396   0.093248
   53  F  5  S   -0.066698   0.030794   0.047556  -0.002590  -0.051082
   54  F  5  X    0.135275  -0.158338   0.041017   0.045978  -0.150001
   55  F  5  Y    0.200739   0.260034  -0.080961   0.168914   0.169681
   56  F  5  Z   -0.135585  -0.212893  -0.270807   0.146001   0.070352
   57  F  5 XX    0.012553  -0.013403  -0.001865   0.004186   0.001030
   58  F  5 YY    0.005487   0.009350  -0.007243   0.001893   0.008567
   59  F  5 ZZ   -0.003959  -0.002811  -0.010023   0.000289   0.006662
   60  F  5 XY    0.014044   0.010093  -0.003302   0.006629   0.001758
   61  F  5 XZ   -0.005676  -0.012771  -0.010887   0.005518   0.000289
   62  F  5 YZ    0.000464   0.000030  -0.004442   0.002519   0.001013
   63  H  6  S   -0.054079   0.036360   0.063406  -0.183151  -0.113805
   64  H  6  S   -0.036004   0.029597   0.053879  -0.144728  -0.124738
   65  H  7  S   -0.020743   0.064831  -0.074661   0.057457  -0.119266
   66  H  7  S   -0.044947   0.059178  -0.054480   0.034675  -0.111962

                     16         17         18         19         20
                   -0.3486     0.0938     0.2333     0.2610     0.2957
                     A          A          A          A          A   
    1  C  1  S    0.055988  -0.013638  -0.079801   0.021605   0.070000
    2  C  1  S   -0.090552  -0.000203   0.105054  -0.056019  -0.024645
    3  C  1  X   -0.102694   0.070730   0.040551   0.136416  -0.022531
    4  C  1  Y   -0.236189   0.046024   0.159955  -0.173896  -0.074286
    5  C  1  Z    0.337943  -0.056469  -0.071489   0.149971  -0.303091
    6  C  1  S   -0.337566   0.282838   0.815378  -0.077549  -1.910121
    7  C  1  X   -0.120256   0.115365   0.114270   0.262980  -0.663520
    8  C  1  Y   -0.189462   0.044890   0.368867  -0.513775  -0.358262
    9  C  1  Z    0.249436  -0.038948   0.077347   0.337844  -1.129456
   10  C  1 XX   -0.006668   0.012447   0.000517   0.012562   0.001707
   11  C  1 YY   -0.001186  -0.004735  -0.011250  -0.009954   0.011528
   12  C  1 ZZ    0.010767  -0.011972  -0.005151  -0.003602   0.005073
   13  C  1 XY   -0.015413   0.009340  -0.008076   0.012655   0.003063
   14  C  1 XZ    0.023367   0.014947   0.000731   0.002890  -0.000392
   15  C  1 YZ   -0.003984  -0.024745   0.007874  -0.003067  -0.003244
   16  C  2  S   -0.020449   0.006746   0.050651   0.078204   0.010862
   17  C  2  S    0.048986  -0.004795  -0.054147  -0.114503  -0.099968
   18  C  2  X   -0.061987   0.081057  -0.009078   0.016374  -0.018065
   19  C  2  Y    0.071269   0.060204   0.172747   0.191110   0.126689
   20  C  2  Z    0.115189   0.425855   0.044705  -0.132278   0.053485
   21  C  2  S    0.127409  -0.120571  -0.932922  -1.331503   0.260531
   22  C  2  X   -0.068294   0.185642  -0.133900   0.422161  -0.263366
   23  C  2  Y    0.065347   0.016971   0.715982   0.759052   0.929535
   24  C  2  Z    0.116047   0.642191  -0.044357  -0.373624   0.358226
   25  C  2 XX    0.002125  -0.003689  -0.005748   0.011161  -0.003143
   26  C  2 YY   -0.007322  -0.001924   0.019905   0.006677  -0.015036
   27  C  2 ZZ    0.003930   0.005836  -0.005271  -0.003072   0.003606
   28  C  2 XY    0.013312  -0.012079   0.001234  -0.007369   0.008008
   29  C  2 XZ   -0.025629  -0.010892   0.002481  -0.008450   0.010733
   30  C  2 YZ    0.006861  -0.011613  -0.008414   0.007945  -0.013640
   31  O  3  S   -0.022282   0.020803  -0.047497   0.036736  -0.004346
   32  O  3  S    0.040439  -0.031693   0.071396  -0.043429   0.036627
   33  O  3  X   -0.179759   0.041945  -0.063728   0.066628  -0.033394
   34  O  3  Y    0.122932  -0.150744   0.115554  -0.132699  -0.003771
   35  O  3  Z   -0.199131  -0.267262  -0.065096   0.066857  -0.060430
   36  O  3  S    0.169294  -0.185177   0.522238  -0.579573  -0.151606
   37  O  3  X   -0.166214   0.051890  -0.147837   0.236494   0.057829
   38  O  3  Y    0.134350  -0.203531   0.137003  -0.189801  -0.080240
   39  O  3  Z   -0.199518  -0.362250  -0.099783   0.094447  -0.126589
   40  O  3 XX    0.006458   0.001652   0.001432   0.004698   0.004217
   41  O  3 YY   -0.008564   0.006746  -0.025259   0.019981  -0.000756
   42  O  3 ZZ   -0.007035   0.008351  -0.017599   0.007703   0.013600
   43  O  3 XY   -0.006950   0.000369  -0.001058  -0.012437   0.006872
   44  O  3 XZ    0.006708   0.000464  -0.004430   0.003723   0.003722
   45  O  3 YZ    0.002354  -0.008747   0.000412   0.003811  -0.001608
   46  H  4  S   -0.027848  -0.002855   0.075804   0.005364  -0.037670
   47  H  4  S   -0.051965  -0.022049   1.410429   1.616281   0.877791
   48  F  5  S   -0.002098  -0.009062   0.005107  -0.022426   0.021117
   49  F  5  S    0.019907   0.033394  -0.027044   0.055309   0.001727
   50  F  5  X    0.052667   0.056415  -0.035866   0.084635  -0.022022
   51  F  5  Y    0.123811  -0.008241  -0.064828   0.105465  -0.008301
   52  F  5  Z   -0.181393   0.028109   0.022624  -0.028128   0.060594
   53  F  5  S   -0.023882   0.035018   0.000451   0.150953  -0.310704
   54  F  5  X    0.042767   0.051048  -0.036673   0.109548  -0.093271
   55  F  5  Y    0.115266  -0.003543  -0.084166   0.145655  -0.035665
   56  F  5  Z   -0.171180   0.034424   0.015719  -0.043816   0.118293
   57  F  5 XX    0.009983   0.005772  -0.007359   0.005426   0.012682
   58  F  5 YY    0.006024   0.006803  -0.003062  -0.001758   0.017818
   59  F  5 ZZ    0.006270   0.005734  -0.009924   0.004356   0.020425
   60  F  5 XY    0.001679   0.002148   0.004330  -0.001832  -0.004351
   61  F  5 XZ    0.002284   0.000475  -0.003531   0.003296  -0.005987
   62  F  5 YZ    0.001106  -0.003567  -0.001476   0.001158  -0.001315
   63  H  6  S    0.074499  -0.106075   0.000278   0.009456  -0.006010
   64  H  6  S    0.095477  -0.369796  -0.682190   0.016920   2.017807
   65  H  7  S   -0.107003   0.089900  -0.135887   0.133067  -0.075921
   66  H  7  S   -0.224129   0.337431  -1.232513   0.577252   0.014718

                     21         22         23         24         25
                    0.3451     0.4296     0.5240     0.7249     0.7373
                     A          A          A          A          A   
    1  C  1  S    0.021679  -0.093452   0.098370  -0.002489  -0.003813
    2  C  1  S   -0.018186   0.083332  -0.056600  -0.321724   0.126849
    3  C  1  X    0.197487  -0.189584  -0.046905  -0.221784  -0.093223
    4  C  1  Y    0.067615  -0.148168   0.177765   0.708909  -0.012297
    5  C  1  Z   -0.094525   0.039311   0.183096   0.046344  -0.146576
    6  C  1  S    0.145135   1.451964  -2.666889  -0.106070  -0.117795
    7  C  1  X    1.111505  -0.920720  -1.980324   0.321884  -0.221466
    8  C  1  Y   -0.147032  -1.052974   1.355875  -0.718809   0.170554
    9  C  1  Z   -0.186059  -0.118611   0.436473  -0.162156   0.137648
   10  C  1 XX    0.012581  -0.010784   0.008214  -0.026859   0.000395
   11  C  1 YY   -0.015647  -0.004283   0.001345  -0.045397   0.027849
   12  C  1 ZZ   -0.005681   0.025039  -0.017371   0.021630  -0.005938
   13  C  1 XY   -0.008747  -0.002697  -0.013528   0.030678  -0.018264
   14  C  1 XZ    0.009062  -0.006920   0.017156   0.004922  -0.041910
   15  C  1 YZ    0.016032  -0.004182   0.002177   0.005608   0.014022
   16  C  2  S   -0.050073   0.006611  -0.112552  -0.059947  -0.006134
   17  C  2  S    0.058630  -0.090700   0.030495  -0.568885   0.113108
   18  C  2  X    0.070613   0.185496  -0.114016   0.187565  -0.204513
   19  C  2  Y   -0.022796   0.021757   0.310926  -0.137769  -0.078744
   20  C  2  Z   -0.035922   0.013408   0.035006  -0.130268  -1.005799
   21  C  2  S    0.720816   0.575244   3.412729   0.999370   0.104773
   22  C  2  X    1.307345   1.778706  -0.670625  -0.307596   0.152766
   23  C  2  Y   -0.064057   0.608052   2.356274   0.640467   0.227000
   24  C  2  Z   -0.215161  -0.173210  -0.459421   0.149874   1.100759
   25  C  2 XX   -0.021021   0.026783  -0.009231  -0.112151   0.012145
   26  C  2 YY    0.024879  -0.020663  -0.002045  -0.106121  -0.002798
   27  C  2 ZZ    0.006471   0.004600   0.018692   0.036002   0.015210
   28  C  2 XY   -0.015552  -0.000798   0.019558   0.082080  -0.006034
   29  C  2 XZ    0.008207   0.000040  -0.009296   0.011724  -0.003886
   30  C  2 YZ    0.003693  -0.006782   0.018645   0.009742  -0.036512
   31  O  3  S    0.042232   0.064988   0.062923   0.014344   0.004617
   32  O  3  S   -0.048120   0.017715  -0.039932  -0.100272  -0.034117
   33  O  3  X    0.097778  -0.050434   0.074707   0.023304  -0.007661
   34  O  3  Y    0.183831   0.156387   0.034034  -0.010731  -0.021026
   35  O  3  Z   -0.091177   0.005301  -0.006216   0.008026  -0.040825
   36  O  3  S   -0.813793  -1.637685  -1.515967  -0.206937  -0.035041
   37  O  3  X    0.286699   0.401990   0.771422   0.219347   0.029529
   38  O  3  Y    0.602160   0.482563   0.089405  -0.010814  -0.002281
   39  O  3  Z   -0.186332  -0.176739  -0.082178  -0.071624  -0.105020
   40  O  3 XX    0.007321   0.013840   0.000573  -0.036718   0.008779
   41  O  3 YY    0.002853   0.047160   0.001789  -0.026349   0.000357
   42  O  3 ZZ    0.018853   0.060605   0.050758   0.003318  -0.039366
   43  O  3 XY   -0.022499  -0.018830   0.008421   0.007429   0.017683
   44  O  3 XZ    0.003946   0.016684  -0.001572   0.020512   0.062072
   45  O  3 YZ    0.013079  -0.003871   0.010838   0.006833   0.036576
   46  H  4  S    0.054474  -0.075075  -0.123964  -0.331423  -0.004426
   47  H  4  S   -0.571462   0.175162   1.051947   0.292990   0.056583
   48  F  5  S   -0.056362   0.077173  -0.003143  -0.004922   0.005380
   49  F  5  S    0.054812   0.004664   0.074937  -0.007861   0.027641
   50  F  5  X    0.138702  -0.164245   0.152338   0.002278  -0.007413
   51  F  5  Y    0.018091  -0.083708  -0.084164   0.099349  -0.066943
   52  F  5  Z    0.077250  -0.050782  -0.013892   0.043719  -0.064174
   53  F  5  S    0.669204  -1.163474  -0.197433   0.047594  -0.092679
   54  F  5  X    0.288886  -0.476244   0.195696  -0.013943  -0.001256
   55  F  5  Y    0.140607  -0.146307  -0.212528   0.110668  -0.038727
   56  F  5  Z    0.127892  -0.128216  -0.072039   0.030286  -0.018115
   57  F  5 XX   -0.012904   0.053363   0.015305  -0.034209   0.030357
   58  F  5 YY   -0.025867   0.059057   0.034666   0.010180   0.021474
   59  F  5 ZZ   -0.026255   0.071703   0.022503  -0.001624   0.009848
   60  F  5 XY    0.014111   0.002151  -0.010274   0.010784   0.019318
   61  F  5 XZ   -0.002036  -0.003087  -0.000882  -0.009942   0.015552
   62  F  5 YZ    0.004618   0.000889   0.005378   0.000953  -0.005149
   63  H  6  S    0.027050   0.032364  -0.043539   0.123524  -0.087157
   64  H  6  S    0.544393  -0.255022  -0.553431  -0.113299  -0.254336
   65  H  7  S   -0.043521  -0.042793  -0.149135   0.049292  -0.012109
   66  H  7  S   -1.047144   0.272374   0.537979  -0.226828   0.183544

                     26         27         28         29         30
                    0.8040     0.8266     0.8534     0.9063     0.9379
                     A          A          A          A          A   
    1  C  1  S   -0.006045   0.019229  -0.022210  -0.003959  -0.036312
    2  C  1  S    0.095398  -0.608851   0.017284   0.146721  -0.261918
    3  C  1  X    0.512409   0.669831   0.135500  -0.327390  -0.074366
    4  C  1  Y    0.090623   0.081421   0.288399  -0.148886  -0.560874
    5  C  1  Z    0.013901   0.259549  -0.842000  -0.001093   0.046562
    6  C  1  S   -0.454326   1.242488   0.811427  -1.888686   0.618408
    7  C  1  X   -0.647666  -1.045374  -0.315321  -0.841650   0.672826
    8  C  1  Y   -0.304562  -0.343635  -0.243999   0.533037   1.415251
    9  C  1  Z   -0.051791  -0.361167   1.658974   0.081077   0.343464
   10  C  1 XX    0.039119   0.103091   0.086317   0.013235  -0.070006
   11  C  1 YY   -0.053107  -0.056761   0.013466  -0.058771  -0.004321
   12  C  1 ZZ    0.041253  -0.052958  -0.042792   0.039130  -0.058004
   13  C  1 XY    0.060124   0.086762   0.002652   0.056631   0.049668
   14  C  1 XZ    0.022436  -0.004049  -0.013944  -0.054608   0.007317
   15  C  1 YZ    0.014718  -0.014777  -0.031224  -0.013064  -0.059517
   16  C  2  S    0.001856   0.018495  -0.002448  -0.036098  -0.044458
   17  C  2  S    0.400006  -0.245131   0.073516   0.228617  -0.670491
   18  C  2  X    0.782451  -0.232051  -0.006585   0.362362   0.482564
   19  C  2  Y    0.105543  -0.197776   0.142390  -0.486817   0.177343
   20  C  2  Z   -0.205478  -0.097663   0.180268   0.050514  -0.115506
   21  C  2  S   -0.396169   0.081097  -0.264467   0.680037   1.572257
   22  C  2  X   -0.725941   0.507251   0.177909  -1.028666  -0.729182
   23  C  2  Y    0.087130   0.065749  -0.619939   3.061917  -1.104424
   24  C  2  Z    0.254494   0.229646  -0.598077  -0.341702   0.027488
   25  C  2 XX   -0.025529  -0.031426  -0.013016  -0.013044  -0.062652
   26  C  2 YY    0.064360   0.046490   0.027927   0.070775  -0.131789
   27  C  2 ZZ    0.013909  -0.034467  -0.005073   0.029003   0.005774
   28  C  2 XY   -0.105870  -0.047410  -0.016917  -0.048474  -0.099954
   29  C  2 XZ    0.021247  -0.008150   0.001905   0.022793  -0.005629
   30  C  2 YZ    0.010124  -0.014495   0.004765  -0.015519   0.074374
   31  O  3  S    0.020743  -0.016055   0.000299   0.025948   0.009748
   32  O  3  S   -0.056207   0.009066  -0.174126  -0.123585  -0.122636
   33  O  3  X    0.125497   0.076512   0.046606   0.331586   0.179512
   34  O  3  Y    0.092726   0.008347  -0.023915  -0.172353   0.192229
   35  O  3  Z   -0.024046   0.029618   0.006800   0.002300  -0.135470
   36  O  3  S    0.100204   0.173775   0.376197  -0.334434   0.527450
   37  O  3  X    0.167732  -0.384702  -0.138383   0.247649  -0.158252
   38  O  3  Y    0.076180  -0.069597   0.056773  -0.076143   0.073426
   39  O  3  Z   -0.051235   0.009017   0.101459  -0.073396   0.105609
   40  O  3 XX    0.034123   0.031142  -0.037130   0.009623   0.024962
   41  O  3 YY    0.013598   0.019695  -0.031412   0.010405   0.031218
   42  O  3 ZZ   -0.030856  -0.029589  -0.074724  -0.032086  -0.040459
   43  O  3 XY    0.138562  -0.065775  -0.019030  -0.014844   0.035611
   44  O  3 XZ   -0.036482   0.033252  -0.036736   0.008948  -0.028504
   45  O  3 YZ   -0.023523  -0.011606   0.002841  -0.023825   0.007153
   46  H  4  S    0.161841   0.037418  -0.093725   0.295608  -0.403233
   47  H  4  S    0.033534  -0.190995  -0.285603   1.639569  -0.680713
   48  F  5  S    0.002602   0.011051   0.007779   0.012802  -0.014513
   49  F  5  S    0.026857   0.042885  -0.094199  -0.127295  -0.168421
   50  F  5  X    0.099353   0.272273   0.029888  -0.046916  -0.106336
   51  F  5  Y    0.097424   0.055066  -0.000725  -0.097087   0.032628
   52  F  5  Z    0.022400   0.014694  -0.155176  -0.057531  -0.026229
   53  F  5  S   -0.254557  -0.694200  -0.017769   0.086527   0.669277
   54  F  5  X   -0.051105  -0.194529  -0.078128  -0.069491   0.140884
   55  F  5  Y    0.014706  -0.083821  -0.027485  -0.049498  -0.073938
   56  F  5  Z   -0.013189  -0.021939  -0.178310  -0.024442   0.008834
   57  F  5 XX   -0.041356  -0.123642  -0.056590  -0.012089  -0.018075
   58  F  5 YY    0.005430   0.025580  -0.016547  -0.052852  -0.086278
   59  F  5 ZZ    0.027705   0.061350  -0.047037  -0.040745  -0.100077
   60  F  5 XY   -0.041805  -0.081556   0.006366   0.024040  -0.036215
   61  F  5 XZ   -0.022892  -0.030529  -0.032811   0.018142   0.030894
   62  F  5 YZ   -0.016165  -0.015973  -0.007635   0.016710  -0.009419
   63  H  6  S    0.058990  -0.076488  -0.345966  -0.028934  -0.354663
   64  H  6  S   -0.006372   0.020090  -0.477745   0.010864  -0.406807
   65  H  7  S   -0.368164   0.451168   0.201231   0.543214   0.193160
   66  H  7  S    0.802854  -0.557271   0.175102  -0.844958  -0.879711

                     31         32         33         34         35
                    1.0084     1.0827     1.1160     1.1667     1.2113
                     A          A          A          A          A   
    1  C  1  S   -0.032155  -0.023860  -0.022531   0.025130  -0.000415
    2  C  1  S    0.263697   0.187252   0.500298  -0.111563  -0.563671
    3  C  1  X    0.346670  -0.124821  -0.072027  -0.002310  -0.128886
    4  C  1  Y   -0.210877   0.104963   0.341568  -0.181504  -0.046852
    5  C  1  Z   -0.168716   0.224917   0.363750  -0.379379  -0.208454
    6  C  1  S   -2.039685  -0.678296  -0.746392  -0.594747   1.474879
    7  C  1  X   -1.179012   0.049702   0.107888  -0.788089   0.179562
    8  C  1  Y    0.982403   0.066092  -0.799750   0.526489  -0.216604
    9  C  1  Z    0.720640  -0.207764  -0.466063   0.688119   0.553427
   10  C  1 XX   -0.151213   0.075231   0.079134  -0.060723  -0.010646
   11  C  1 YY    0.040620  -0.047796   0.022999  -0.076060  -0.055400
   12  C  1 ZZ    0.040846  -0.010758  -0.029533   0.097490   0.002106
   13  C  1 XY    0.072712   0.025118  -0.025492  -0.002304  -0.000562
   14  C  1 XZ    0.074326  -0.002112   0.023438  -0.021066   0.040411
   15  C  1 YZ   -0.016856  -0.064434  -0.108281   0.092895   0.068532
   16  C  2  S    0.024504   0.032860  -0.013378  -0.031904  -0.009607
   17  C  2  S   -0.713928  -0.876213   0.162985  -0.807962   0.058160
   18  C  2  X    0.077166   0.051870  -0.175319  -0.075301  -0.115948
   19  C  2  Y   -0.796745   0.441000  -0.202207   0.108297   0.046272
   20  C  2  Z    0.086587  -0.078419   0.044507  -0.037951   0.070989
   21  C  2  S    2.286175   2.013172  -1.104130   2.204456  -0.684039
   22  C  2  X   -0.738850  -0.109568   0.335524  -0.178924   0.386881
   23  C  2  Y    2.737555  -0.356483   0.027370   0.562929  -0.202298
   24  C  2  Z   -0.504050  -0.006775  -0.041244   0.109910  -0.468451
   25  C  2 XX    0.108013  -0.128832  -0.080777  -0.143306  -0.071199
   26  C  2 YY   -0.039722   0.135832  -0.043452  -0.041616  -0.008498
   27  C  2 ZZ   -0.055544  -0.111252   0.057741   0.009170   0.042341
   28  C  2 XY    0.055197   0.062245  -0.099326  -0.061790  -0.022274
   29  C  2 XZ   -0.069696  -0.054789  -0.023934   0.102086   0.002320
   30  C  2 YZ    0.029495  -0.015039   0.097022  -0.018638   0.006804
   31  O  3  S   -0.017008  -0.006793   0.001443   0.016307   0.008475
   32  O  3  S    0.130298  -0.126800   0.480534   0.471324   0.193803
   33  O  3  X   -0.371872  -0.141549   0.377521   0.408269   0.124694
   34  O  3  Y   -0.094217  -0.210202   0.154471   0.092029  -0.145011
   35  O  3  Z   -0.036334  -0.027701  -0.068037   0.327594  -0.819349
   36  O  3  S   -0.958626   0.013574  -0.787482  -1.391442  -0.480453
   37  O  3  X    0.517807   0.305812  -0.705119  -0.454357  -0.170176
   38  O  3  Y   -0.048790   0.238122  -0.311058  -0.250862   0.098503
   39  O  3  Z    0.058197   0.020898   0.177274  -0.403280   1.051429
   40  O  3 XX   -0.173378  -0.007361   0.145114   0.156971   0.086639
   41  O  3 YY    0.001554  -0.151124   0.182670   0.116740   0.062540
   42  O  3 ZZ    0.110426  -0.025173   0.192426   0.255580   0.078089
   43  O  3 XY   -0.008929  -0.051771   0.076129   0.031106   0.027295
   44  O  3 XZ    0.025398  -0.000158  -0.015815  -0.004372   0.000899
   45  O  3 YZ    0.066802   0.055762   0.019778   0.001652   0.043300
   46  H  4  S   -0.055602   0.831590  -0.105039   0.339793   0.167326
   47  H  4  S    1.295225  -1.410530   0.347532  -0.426899  -0.074345
   48  F  5  S   -0.009666  -0.002341   0.003664   0.011103  -0.012312
   49  F  5  S    0.001617  -0.189151  -0.037060   0.144580  -0.302537
   50  F  5  X    0.008663  -0.024662   0.017373   0.013593   0.057108
   51  F  5  Y   -0.019140  -0.019539  -0.027644  -0.049559   0.068517
   52  F  5  Z   -0.013039  -0.029418  -0.069893  -0.037674   0.030460
   53  F  5  S    0.123886   0.377597   0.022532  -0.353811   0.450263
   54  F  5  X    0.182384  -0.028096  -0.064893   0.025625  -0.126133
   55  F  5  Y   -0.027406   0.000717   0.050594  -0.004533  -0.056412
   56  F  5  Z   -0.041369   0.010921   0.046631  -0.025196  -0.079158
   57  F  5 XX    0.042078  -0.082604  -0.046640   0.112857  -0.157291
   58  F  5 YY   -0.025902  -0.077076  -0.002866   0.062895  -0.146810
   59  F  5 ZZ   -0.026557  -0.070136   0.013362   0.054933  -0.131578
   60  F  5 XY   -0.026844   0.005990   0.043343  -0.003593  -0.011533
   61  F  5 XZ   -0.013329   0.026792   0.041159  -0.022638  -0.036992
   62  F  5 YZ   -0.012675   0.014231   0.022654  -0.008719  -0.008176
   63  H  6  S   -0.142643  -0.431770  -0.677394   0.500290   0.258893
   64  H  6  S   -0.561387   0.521438   1.202756  -1.072874  -0.805867
   65  H  7  S   -0.439504  -0.056818  -0.353373  -0.273583  -0.208960
   66  H  7  S    0.270893  -0.148563   0.686488   0.636521   0.389897

                     36         37         38         39         40
                    1.2535     1.4057     1.4161     1.5862     1.6204
                     A          A          A          A          A   
    1  C  1  S   -0.066991  -0.002534  -0.057856  -0.008981  -0.003919
    2  C  1  S   -1.360774  -0.229867  -0.914669  -0.221305  -0.124816
    3  C  1  X   -0.327398  -0.166741   0.047706  -0.060778   0.026700
    4  C  1  Y   -0.070896  -0.111814   0.048396  -0.047889   0.016730
    5  C  1  Z   -0.130428  -0.040671  -0.000302   0.113637   0.002311
    6  C  1  S    3.829742   1.446486   3.091564   0.792567   0.305143
    7  C  1  X    1.233143   0.931640   0.530299   0.454186  -0.181976
    8  C  1  Y   -0.564322  -0.022486  -0.644843   0.179118   0.218052
    9  C  1  Z    0.561934   0.058676   0.118918  -0.292191   0.119048
   10  C  1 XX   -0.081227   0.086148  -0.190229  -0.017032  -0.015123
   11  C  1 YY   -0.092343   0.029563  -0.043595   0.154049   0.061878
   12  C  1 ZZ   -0.053982  -0.054758   0.044558  -0.120726  -0.105326
   13  C  1 XY    0.023377   0.057744  -0.090429   0.102429  -0.102377
   14  C  1 XZ    0.053166   0.198494  -0.008254  -0.212386   0.034259
   15  C  1 YZ   -0.120167  -0.006967  -0.152075   0.096281   0.039212
   16  C  2  S    0.016807   0.013593   0.027737   0.006447  -0.005975
   17  C  2  S    0.614230   0.112187   0.211231   0.042937   0.077007
   18  C  2  X   -0.028212  -0.082157   0.009988  -0.038104  -0.146727
   19  C  2  Y   -0.154629   0.048087   0.075551  -0.025035  -0.102851
   20  C  2  Z   -0.023511  -0.063187   0.003956   0.035740  -0.054676
   21  C  2  S   -2.981958  -0.299815  -0.776091   0.222202  -1.228572
   22  C  2  X    0.677928   0.924704   1.432439   0.644056  -0.351748
   23  C  2  Y    0.093210  -0.874728  -0.580423  -0.056194  -0.081271
   24  C  2  Z   -0.159532   0.063209  -0.202847  -0.008411   0.208985
   25  C  2 XX   -0.093887   0.096872   0.094638   0.110849   0.031384
   26  C  2 YY    0.113304  -0.065201  -0.079982  -0.087463   0.022787
   27  C  2 ZZ    0.045976  -0.010100   0.027251  -0.001987  -0.076079
   28  C  2 XY    0.082986   0.063666   0.068282   0.090387  -0.094254
   29  C  2 XZ   -0.067926  -0.108710  -0.123710   0.211657   0.090098
   30  C  2 YZ    0.050494   0.148021   0.038846  -0.186436   0.148085
   31  O  3  S    0.003886   0.003905   0.022493   0.007935  -0.051476
   32  O  3  S    0.062744   0.112849   0.315125   0.192924  -0.808995
   33  O  3  X   -0.138875   0.123414   0.115292  -0.000741   0.195167
   34  O  3  Y    0.402809  -0.465639  -0.516140  -0.234294   0.005603
   35  O  3  Z    0.188909   0.268115   0.074335   0.058512   0.024157
   36  O  3  S   -0.032818  -0.266174  -0.986863  -0.619361   2.269328
   37  O  3  X    0.294129  -0.177319   0.017225   0.126323  -0.835777
   38  O  3  Y   -0.598710   1.017251   1.177259   0.625560  -0.256378
   39  O  3  Z   -0.224225  -0.461872  -0.196885  -0.247365  -0.023154
   40  O  3 XX    0.100500  -0.056463   0.041579   0.029931  -0.371228
   41  O  3 YY   -0.064135   0.085498   0.142727  -0.048026  -0.215718
   42  O  3 ZZ    0.000294   0.025979   0.066806   0.124017  -0.067645
   43  O  3 XY    0.000249   0.044117   0.065413   0.050530  -0.021123
   44  O  3 XZ   -0.058211  -0.062874  -0.004075  -0.014181  -0.096688
   45  O  3 YZ    0.077792   0.059640   0.034990  -0.088047   0.044180
   46  H  4  S    0.218930  -0.134621   0.039150  -0.049733   0.166755
   47  H  4  S    0.511289  -0.354942  -0.200455  -0.039955   0.139205
   48  F  5  S   -0.000155  -0.059216   0.055527  -0.014730   0.003897
   49  F  5  S   -0.175092  -0.930893   0.833184  -0.142186   0.016646
   50  F  5  X    0.059287   0.345414  -0.332218   0.098852  -0.463314
   51  F  5  Y    0.064559   0.120411  -0.223628   0.476824   0.493866
   52  F  5  Z   -0.054462   0.310390  -0.090345  -0.561878   0.254696
   53  F  5  S    0.135872   1.995291  -1.950571   0.383347  -0.111488
   54  F  5  X   -0.210842  -0.436118   0.328252  -0.095460   0.581400
   55  F  5  Y   -0.015211  -0.143805   0.274843  -0.541754  -0.627735
   56  F  5  Z   -0.018305  -0.299023   0.083804   0.666802  -0.315975
   57  F  5 XX   -0.108988  -0.438884   0.343802  -0.056535  -0.088426
   58  F  5 YY   -0.088467  -0.451221   0.402665  -0.114068   0.123728
   59  F  5 ZZ   -0.017188  -0.471515   0.478426  -0.054437   0.019752
   60  F  5 XY    0.010351   0.018177   0.005106  -0.038370   0.024828
   61  F  5 XZ   -0.000034  -0.035153  -0.019448   0.053276   0.008302
   62  F  5 YZ   -0.039557  -0.035441  -0.035091   0.036827   0.009624
   63  H  6  S   -0.229452  -0.013105  -0.183646  -0.111322  -0.030241
   64  H  6  S   -0.737749  -0.153375  -0.284675   0.036506  -0.142657
   65  H  7  S   -0.279612  -0.097066  -0.045430  -0.102732  -0.185978
   66  H  7  S   -0.017480  -0.655834  -0.632382  -0.582078  -0.161388

                     41         42         43         44         45
                    1.7091     1.7316     1.8009     1.8858     1.9860
                     A          A          A          A          A   
    1  C  1  S    0.021284   0.014245  -0.007397  -0.002623  -0.013950
    2  C  1  S    0.202825   0.189869  -0.312535  -0.046289  -0.011324
    3  C  1  X    0.003240  -0.012122  -0.104920   0.032377  -0.019117
    4  C  1  Y   -0.083731   0.022713   0.057336  -0.238850  -0.010493
    5  C  1  Z   -0.024708   0.119298   0.095532  -0.032499   0.101026
    6  C  1  S   -0.512768  -0.622295   1.845678   1.236631  -0.129157
    7  C  1  X   -0.272005   0.005085   1.316727   0.443486   0.608914
    8  C  1  Y    0.230778  -0.072474  -0.546363  -0.074053   0.090395
    9  C  1  Z   -0.266834  -0.670518  -0.467924  -0.358193  -0.151319
   10  C  1 XX    0.058831  -0.032901  -0.063408   0.347521   0.110264
   11  C  1 YY   -0.139602  -0.086649   0.186468  -0.523630  -0.095433
   12  C  1 ZZ    0.114071   0.110366  -0.112973   0.205134  -0.091724
   13  C  1 XY   -0.075674  -0.112011   0.085758  -0.006330  -0.093109
   14  C  1 XZ    0.095555   0.375372  -0.073490  -0.252018  -0.136074
   15  C  1 YZ   -0.151018   0.023287   0.005852  -0.210995   0.356729
   16  C  2  S   -0.002405  -0.002696  -0.002313   0.008419  -0.007030
   17  C  2  S   -0.058030  -0.006696   0.227036  -0.030474  -0.078370
   18  C  2  X   -0.013398  -0.017353  -0.154629  -0.075797   0.034745
   19  C  2  Y    0.008270   0.044332   0.072124  -0.134761  -0.136882
   20  C  2  Z    0.156468  -0.129231   0.093140  -0.004458   0.070592
   21  C  2  S    0.093498  -0.230014  -3.531145  -1.285768   0.018290
   22  C  2  X   -0.346751  -0.330294  -0.349465  -0.199445   0.047573
   23  C  2  Y   -0.067127  -0.176852  -1.953326  -1.572741  -0.349631
   24  C  2  Z    0.026157   0.311905   0.377100   0.329618   0.160660
   25  C  2 XX   -0.135583   0.023195   0.020746  -0.162739  -0.073052
   26  C  2 YY   -0.077590   0.075779  -0.105346   0.227715   0.147430
   27  C  2 ZZ    0.211268  -0.108131   0.052121  -0.048602  -0.116161
   28  C  2 XY   -0.162887  -0.012304  -0.111762   0.019776  -0.076618
   29  C  2 XZ   -0.424751  -0.013337   0.004785   0.091745  -0.076402
   30  C  2 YZ   -0.255741   0.388981  -0.105168   0.099683  -0.166640
   31  O  3  S   -0.017633  -0.011126  -0.087176  -0.049071  -0.005732
   32  O  3  S   -0.248529  -0.260308  -1.345026  -0.498025   0.043492
   33  O  3  X    0.031060   0.019243   0.255132  -0.001060  -0.000595
   34  O  3  Y    0.001691   0.035629   0.008485  -0.148458  -0.063754
   35  O  3  Z    0.101705  -0.043408   0.008610  -0.041622   0.085535
   36  O  3  S    0.758794   0.803087   4.313094   2.051215   0.033656
   37  O  3  X   -0.206970  -0.198619  -1.391176  -0.641343  -0.049088
   38  O  3  Y   -0.045106  -0.178917  -0.264264   0.074793   0.105892
   39  O  3  Z    0.140946  -0.000460   0.176254   0.097063  -0.128215
   40  O  3 XX   -0.022625  -0.144748  -0.555568  -0.202459   0.085060
   41  O  3 YY   -0.004032   0.023230  -0.331126  -0.166375   0.233094
   42  O  3 ZZ   -0.168106  -0.044383  -0.143757  -0.043834  -0.319615
   43  O  3 XY    0.098381  -0.076238   0.096670  -0.040898  -0.106565
   44  O  3 XZ    0.376127  -0.161736   0.062562  -0.211208  -0.281770
   45  O  3 YZ    0.208035  -0.030099   0.145807   0.073422   0.498813
   46  H  4  S   -0.005063   0.054154   0.089841  -0.428398  -0.298811
   47  H  4  S   -0.033245  -0.100791  -0.458066  -0.483642  -0.102520
   48  F  5  S    0.014563  -0.000004  -0.008012   0.027781  -0.037117
   49  F  5  S    0.187232  -0.010928  -0.088967   0.417319  -0.636575
   50  F  5  X    0.045704   0.039949   0.180189   0.186861  -0.194186
   51  F  5  Y    0.304366  -0.026637  -0.351615  -0.027905  -0.130523
   52  F  5  Z   -0.143814  -0.500341  -0.142669  -0.061199  -0.122086
   53  F  5  S   -0.422630   0.029098   0.271186  -0.929128   1.482579
   54  F  5  X   -0.082597  -0.079181  -0.300138  -0.401649   0.374114
   55  F  5  Y   -0.450438   0.009892   0.590464  -0.056615   0.226912
   56  F  5  Z    0.223003   0.785924   0.241387   0.043973   0.220035
   57  F  5 XX    0.060805   0.059457   0.081386   0.019588  -0.321278
   58  F  5 YY    0.156110   0.069470  -0.166147   0.141751  -0.162867
   59  F  5 ZZ    0.032846  -0.141618  -0.036554   0.313411  -0.231258
   60  F  5 XY    0.160427   0.096595  -0.203464   0.292156  -0.126088
   61  F  5 XZ   -0.071927  -0.315060   0.058156   0.203526  -0.171697
   62  F  5 YZ   -0.038240  -0.140504  -0.105693   0.050682   0.261270
   63  H  6  S    0.176986   0.131188   0.003080   0.161585  -0.071258
   64  H  6  S    0.111283   0.392111   0.293768   0.027293   0.077262
   65  H  7  S   -0.010761   0.102857  -0.364470  -0.249691  -0.178844
   66  H  7  S   -0.066524  -0.071109  -0.462703  -0.168254  -0.036133

                     46         47         48         49         50
                    2.0104     2.0847     2.1236     2.1814     2.1929
                     A          A          A          A          A   
    1  C  1  S   -0.028337   0.046976   0.006304   0.035445   0.015230
    2  C  1  S   -0.648131   0.205278   0.092307   0.572240   0.147431
    3  C  1  X   -0.228531  -0.049899  -0.005463   0.068672   0.055005
    4  C  1  Y    0.048468   0.180388  -0.026168  -0.054439  -0.087283
    5  C  1  Z    0.009526  -0.092186  -0.016303   0.002735  -0.082408
    6  C  1  S    1.117211  -1.767737  -0.492884  -2.283009  -0.187954
    7  C  1  X    0.958140  -1.340856   0.297158   0.658887   0.724407
    8  C  1  Y    0.008606  -0.010934  -0.122307   0.745009  -0.081307
    9  C  1  Z    0.358599  -0.411560  -0.209748  -0.003843  -0.360565
   10  C  1 XX    0.032139  -0.138619   0.087024  -0.202132   0.035077
   11  C  1 YY   -0.099346   0.230951   0.076321  -0.005450  -0.008133
   12  C  1 ZZ   -0.025460  -0.033785  -0.188374   0.235917   0.039133
   13  C  1 XY   -0.350553   0.045005  -0.084470  -0.101379  -0.063137
   14  C  1 XZ   -0.032325  -0.183781  -0.001470  -0.167257  -0.141258
   15  C  1 YZ    0.053205  -0.173131  -0.178691  -0.105982  -0.215790
   16  C  2  S    0.005842  -0.013589  -0.010863   0.011930   0.009007
   17  C  2  S   -0.277096  -0.168877  -0.079562  -0.063991   0.175453
   18  C  2  X    0.148212   0.032530   0.062694  -0.011434  -0.022751
   19  C  2  Y   -0.038985   0.155723  -0.144384   0.162340   0.032176
   20  C  2  Z    0.003547  -0.039857   0.023950  -0.004156  -0.037994
   21  C  2  S   -0.454646   1.806276   0.319482   0.736160  -0.626865
   22  C  2  X   -0.279064  -0.304362   0.212950  -0.624097   0.146765
   23  C  2  Y    0.198964   1.812029   0.062938   0.095355  -0.647741
   24  C  2  Z   -0.196806   0.013989  -0.032237  -0.000239   0.230316
   25  C  2 XX    0.339199   0.184427  -0.033312   0.067250  -0.066944
   26  C  2 YY   -0.268810  -0.162268   0.133609  -0.303553  -0.026690
   27  C  2 ZZ   -0.136383  -0.012540  -0.170207   0.319034   0.047301
   28  C  2 XY   -0.226883  -0.039989  -0.007401   0.014174   0.092634
   29  C  2 XZ    0.143843  -0.203445   0.000119   0.087204  -0.198945
   30  C  2 YZ   -0.181479   0.289761  -0.081777   0.057440   0.299419
   31  O  3  S   -0.004442   0.031692   0.002201   0.007927  -0.002790
   32  O  3  S   -0.049573   0.312713   0.136000   0.126711  -0.012973
   33  O  3  X   -0.116117  -0.062216   0.025284  -0.139004  -0.021318
   34  O  3  Y    0.078895   0.149468  -0.060131   0.089591   0.028204
   35  O  3  Z    0.008786  -0.058253   0.002228   0.008855   0.004263
   36  O  3  S    0.208823  -1.449672  -0.444733  -0.167716   0.277678
   37  O  3  X    0.145513   0.557696   0.053452   0.305815  -0.035361
   38  O  3  Y   -0.117087  -0.196519   0.163576  -0.223332  -0.028145
   39  O  3  Z   -0.007162  -0.010379  -0.034174  -0.000684  -0.016612
   40  O  3 XX   -0.272231  -0.122435   0.168649  -0.122759  -0.041679
   41  O  3 YY    0.313431   0.484661  -0.081291   0.083352  -0.331611
   42  O  3 ZZ   -0.072927  -0.112933  -0.045739   0.139978   0.348819
   43  O  3 XY    0.045777   0.009448  -0.049963   0.109095   0.218002
   44  O  3 XZ    0.081258  -0.272714  -0.033079  -0.068423   0.123677
   45  O  3 YZ   -0.276303   0.311191   0.024810   0.146913  -0.056495
   46  H  4  S    0.318497   0.455102  -0.202815   0.230178  -0.018205
   47  H  4  S    0.059013   0.476529   0.037183  -0.110337  -0.240435
   48  F  5  S   -0.024266   0.029828  -0.021629  -0.084066  -0.031340
   49  F  5  S   -0.133772   0.670217  -0.391611  -1.162815  -0.538385
   50  F  5  X    0.200540   0.221130  -0.078237  -0.095818  -0.043030
   51  F  5  Y   -0.110386   0.189346  -0.085664  -0.057163  -0.067793
   52  F  5  Z    0.020758  -0.019062  -0.089032  -0.077674  -0.115113
   53  F  5  S    0.568968  -1.504065   0.907734   3.069657   1.318616
   54  F  5  X   -0.124427  -0.326207   0.193068   0.661652   0.226418
   55  F  5  Y    0.202804  -0.292494   0.165256   0.244751   0.186907
   56  F  5  Z   -0.011515   0.013415   0.161618   0.237538   0.241861
   57  F  5 XX   -0.273421   0.357032  -0.315919  -0.872233  -0.322856
   58  F  5 YY    0.241500   0.204566   0.482019  -0.476770   0.127275
   59  F  5 ZZ   -0.178227   0.132117  -0.578986   0.090717  -0.342727
   60  F  5 XY    0.196921  -0.095402  -0.147014   0.082350  -0.287680
   61  F  5 XZ   -0.015546   0.303767   0.363964   0.002385  -0.034488
   62  F  5 YZ    0.205738   0.072052  -0.471862  -0.312029   0.591817
   63  H  6  S   -0.184832   0.349565   0.291627   0.092874   0.293340
   64  H  6  S   -0.346177   0.163453   0.153319   0.229398   0.211247
   65  H  7  S   -0.163077   0.270983  -0.108028   0.271229   0.190709
   66  H  7  S   -0.306826   0.205934   0.024828  -0.098537  -0.143145

                     51         52         53         54         55
                    2.2980     2.3522     2.4393     2.5131     2.6061
                     A          A          A          A          A   
    1  C  1  S   -0.023781   0.002082  -0.039278  -0.030172   0.016789
    2  C  1  S   -0.095871  -0.076969  -0.356391  -0.322500   0.044162
    3  C  1  X    0.171853  -0.006700   0.116789  -0.070626  -0.295597
    4  C  1  Y   -0.063389   0.032770   0.021790   0.057295   0.124839
    5  C  1  Z    0.127022  -0.034972   0.018132  -0.024099   0.034375
    6  C  1  S    1.594798  -0.266449   1.206164   1.679980  -0.802610
    7  C  1  X    0.116570  -0.311445  -0.018329   0.666421  -0.204697
    8  C  1  Y   -0.509351  -0.289416  -0.357424  -0.543365   0.686186
    9  C  1  Z    0.336181  -0.154050  -0.098476  -0.174198   0.374609
   10  C  1 XX   -0.169644   0.128283   0.451482   0.024017  -0.117171
   11  C  1 YY    0.005668   0.283473  -0.328596   0.120357  -0.370050
   12  C  1 ZZ    0.252504  -0.460885  -0.222238  -0.213862   0.518236
   13  C  1 XY   -0.114621  -0.122277   0.307698  -0.429571  -0.179963
   14  C  1 XZ    0.023108   0.027763   0.073356  -0.042554  -0.427380
   15  C  1 YZ    0.014559   0.072047   0.464155   0.239819   0.264883
   16  C  2  S    0.039788  -0.035169   0.030146   0.072172  -0.050237
   17  C  2  S    0.331286  -0.270149   0.216229   0.135228  -0.079588
   18  C  2  X    0.058516   0.265270  -0.178309   0.223568  -0.155928
   19  C  2  Y    0.045171  -0.099915   0.097789  -0.138085   0.010150
   20  C  2  Z   -0.016796  -0.001344   0.063608   0.030531   0.047786
   21  C  2  S   -1.416134   1.080359  -0.909898  -1.450218   1.338611
   22  C  2  X    0.509781   0.169367   0.232960   0.223345  -0.314855
   23  C  2  Y   -0.811025   0.551622  -0.148232  -0.953726   0.589496
   24  C  2  Z   -0.139887  -0.021267   0.109345   0.206413  -0.103665
   25  C  2 XX   -0.024436   0.354312  -0.123333  -0.299149   0.056832
   26  C  2 YY   -0.261212   0.049620  -0.102010   0.033758   0.248661
   27  C  2 ZZ    0.318208  -0.573431   0.250452   0.390833  -0.495069
   28  C  2 XY    0.125301   0.091145   0.066937  -0.577139  -0.134285
   29  C  2 XZ    0.314507  -0.212891   0.038204   0.119667  -0.252774
   30  C  2 YZ   -0.247121  -0.036185   0.206698   0.367383   0.064889
   31  O  3  S    0.004270   0.018263  -0.006089  -0.001405   0.003149
   32  O  3  S    0.061811   0.176508   0.223661   0.338697   0.153842
   33  O  3  X   -0.032217   0.139488  -0.201641  -0.369923  -0.020507
   34  O  3  Y    0.006888   0.168238   0.060427  -0.280170   0.063570
   35  O  3  Z   -0.041793  -0.064294   0.039117   0.108117  -0.007073
   36  O  3  S    0.115784  -1.016820  -0.115727   0.106770  -0.542640
   37  O  3  X   -0.041718   0.265427   0.238755   0.064428   0.265211
   38  O  3  Y   -0.009668  -0.009308  -0.249942   0.258133  -0.129447
   39  O  3  Z    0.117522  -0.022108  -0.058204  -0.090941  -0.011203
   40  O  3 XX    0.021120   0.131503  -0.302622   0.241517  -0.131191
   41  O  3 YY   -0.296956  -0.427964   0.207479  -0.228830  -0.016760
   42  O  3 ZZ    0.327957   0.314170   0.145827   0.279429   0.157355
   43  O  3 XY    0.124287   0.269019   0.428201  -0.172497   0.317185
   44  O  3 XZ   -0.251686  -0.018716   0.142926   0.142242   0.028261
   45  O  3 YZ    0.424732   0.254369   0.064552   0.119818  -0.096220
   46  H  4  S    0.109420  -0.081275   0.211727  -0.107779  -0.181577
   47  H  4  S   -0.230901   0.064465  -0.024718  -0.228188   0.162698
   48  F  5  S    0.013932   0.007045   0.033934   0.006157  -0.016077
   49  F  5  S    0.482941   0.184324   0.020143   0.242904   0.043266
   50  F  5  X    0.187919   0.037319  -0.255878   0.134362   0.094185
   51  F  5  Y    0.026032  -0.077723  -0.111000   0.003752   0.161904
   52  F  5  Z    0.171439  -0.020408  -0.071717  -0.020892   0.113887
   53  F  5  S   -1.028233  -0.464137  -0.547752  -0.495180   0.209302
   54  F  5  X   -0.299772  -0.141042   0.004497  -0.233276   0.080540
   55  F  5  Y   -0.006475   0.102810   0.049966   0.040422  -0.281161
   56  F  5  Z   -0.293731   0.018904   0.036967   0.066976  -0.201035
   57  F  5 XX    0.246193  -0.069808   0.121547   0.138915   0.208119
   58  F  5 YY    0.449996  -0.089122   0.129913  -0.085551  -0.120603
   59  F  5 ZZ   -0.267907   0.287795  -0.128734   0.161906  -0.110361
   60  F  5 XY    0.132504   0.355775   0.122710  -0.067452  -0.357021
   61  F  5 XZ   -0.201596  -0.021890   0.218919   0.163678  -0.162838
   62  F  5 YZ   -0.002985  -0.042265  -0.094031  -0.045557  -0.345150
   63  H  6  S   -0.410168   0.270680  -0.128559  -0.076738  -0.433177
   64  H  6  S    0.014441  -0.012895  -0.017667   0.037702  -0.121838
   65  H  7  S    0.353615   0.293741   0.298066   0.031060   0.210880
   66  H  7  S    0.053132   0.073961  -0.035229  -0.070016  -0.105041

                     56         57         58         59         60
                    2.7243     2.8087     2.8493     3.0682     3.1587
                     A          A          A          A          A   
    1  C  1  S    0.032468   0.020660  -0.002822   0.059343  -0.003290
    2  C  1  S    0.012724   0.096595   0.097079  -0.147569  -0.015669
    3  C  1  X   -0.167310  -0.126889   0.049325  -0.182718   0.297520
    4  C  1  Y    0.182698   0.107170   0.080122   0.312454   0.094076
    5  C  1  Z    0.003047  -0.032863  -0.044084   0.031729   0.034973
    6  C  1  S   -1.578477  -0.865462  -0.091513  -1.325836   0.330787
    7  C  1  X   -0.659659  -0.266019   0.020531  -0.442391   0.333690
    8  C  1  Y    0.508264   0.420743   0.095889   0.440919   0.057144
    9  C  1  Z    0.229775   0.023393  -0.165747   0.014274  -0.031906
   10  C  1 XX    0.321124  -0.088174  -0.177663  -0.321609   0.263402
   11  C  1 YY   -0.194534  -0.234069  -0.241477  -0.093345  -0.349575
   12  C  1 ZZ   -0.225483   0.296863   0.349670   0.451552  -0.025239
   13  C  1 XY    0.142380  -0.010531  -0.151719   0.853932  -0.275602
   14  C  1 XZ    0.133816   0.444196   0.593077  -0.129863  -0.128162
   15  C  1 YZ   -0.567590  -0.181078   0.301101   0.092691  -0.084850
   16  C  2  S   -0.023457  -0.029817  -0.015506  -0.043951   0.002672
   17  C  2  S   -0.109242   0.013305   0.103222   0.282341  -0.772335
   18  C  2  X   -0.153706  -0.071058  -0.039008  -0.198324  -0.580927
   19  C  2  Y   -0.000129   0.077167   0.021579   0.306650  -0.539454
   20  C  2  Z   -0.134280   0.118776  -0.135970  -0.001189   0.177742
   21  C  2  S    1.762589   0.972287   0.092321   1.366336  -1.400477
   22  C  2  X   -0.530179  -0.243387   0.010950  -0.392310  -0.233869
   23  C  2  Y    1.087047   0.399763  -0.230817   0.271396  -0.925467
   24  C  2  Z   -0.285862   0.116881  -0.119172   0.019287   0.213495
   25  C  2 XX   -0.057759   0.254960   0.050735   0.603391   0.326424
   26  C  2 YY    0.039042   0.158810  -0.178863  -0.259742  -0.703092
   27  C  2 ZZ   -0.031894  -0.500789   0.026233  -0.346750   0.350695
   28  C  2 XY   -0.532669  -0.043673  -0.067609  -0.745984  -0.216592
   29  C  2 XZ    0.075652   0.706393  -0.380057  -0.120413   0.114729
   30  C  2 YZ   -0.408402   0.105644  -0.375804   0.143824   0.256595
   31  O  3  S   -0.000067   0.007394   0.010382   0.014306  -0.041699
   32  O  3  S    0.528135   0.095871  -0.089711   0.141494  -0.725820
   33  O  3  X   -0.262939  -0.026034   0.068905  -0.086791  -0.019924
   34  O  3  Y   -0.039633  -0.004732   0.037645  -0.055663  -0.025769
   35  O  3  Z    0.012905   0.014722  -0.019308   0.029450   0.020213
   36  O  3  S   -1.139068  -0.347163   0.061838  -0.427645   2.387454
   37  O  3  X    0.601595   0.103124  -0.025340   0.100108  -1.296995
   38  O  3  Y   -0.108688  -0.055844   0.064146   0.322132  -0.353990
   39  O  3  Z    0.152840  -0.326936   0.238628  -0.076608   0.187892
   40  O  3 XX   -0.226364   0.132253  -0.027852   0.324376   0.893132
   41  O  3 YY    0.065527   0.117472  -0.202155  -0.306139  -0.402404
   42  O  3 ZZ    0.299823  -0.183104   0.261682   0.137309  -0.564823
   43  O  3 XY    0.154382   0.225336  -0.091767  -0.329002   0.388641
   44  O  3 XZ   -0.368313   0.513491  -0.435547   0.035525  -0.249382
   45  O  3 YZ   -0.065650   0.457475  -0.179074   0.096730  -0.106493
   46  H  4  S   -0.074063  -0.109602  -0.012360   0.047635   0.334001
   47  H  4  S    0.345895   0.087967  -0.136072  -0.095674  -0.393191
   48  F  5  S    0.009144  -0.007639  -0.003006  -0.005007  -0.009260
   49  F  5  S   -0.232771  -0.075986  -0.024177  -0.205075  -0.276447
   50  F  5  X   -0.193364  -0.019189  -0.000218  -0.093300  -0.086129
   51  F  5  Y    0.008680   0.052493   0.036506  -0.060126  -0.001041
   52  F  5  Z    0.011456  -0.048381  -0.115938  -0.013238  -0.006648
   53  F  5  S    0.327345   0.243908   0.078900   0.419208   0.603982
   54  F  5  X    0.288264   0.078694   0.009275   0.172100   0.329087
   55  F  5  Y   -0.130813  -0.157052  -0.095549   0.143314  -0.001878
   56  F  5  Z   -0.093039   0.142655   0.332513   0.013380   0.033699
   57  F  5 XX    0.272283  -0.029242  -0.094833  -0.148785   0.320554
   58  F  5 YY   -0.296478  -0.178702  -0.122293   0.160771  -0.282549
   59  F  5 ZZ   -0.060227   0.105887   0.185207  -0.160121  -0.180183
   60  F  5 XY   -0.203974  -0.253987  -0.186603   0.270666  -0.064963
   61  F  5 XZ   -0.230761   0.271927   0.629171  -0.007654   0.024842
   62  F  5 YZ   -0.048768   0.134522   0.173768   0.051504  -0.048081
   63  H  6  S    0.417108   0.001887  -0.206422  -0.100003   0.066053
   64  H  6  S   -0.257383  -0.035651   0.193987   0.079370  -0.001892
   65  H  7  S    0.254431   0.123189   0.165255  -0.105854  -0.309485
   66  H  7  S    0.144961  -0.043912  -0.109654   0.039326   0.029070

                     61         62         63         64         65
                    3.2677     3.4472     4.2117     4.4810     4.6051
                     A          A          A          A          A   
    1  C  1  S    0.002995   0.088839   0.062562  -0.202516   0.177685
    2  C  1  S    0.334523  -0.736397  -0.360258   1.212197  -1.090540
    3  C  1  X   -0.449639   0.812094   0.020348   0.212484   0.200812
    4  C  1  Y   -0.099716   0.312947  -0.055787  -0.080585   0.006834
    5  C  1  Z   -0.067186   0.216179   0.048969  -0.000776   0.055366
    6  C  1  S   -0.050895  -1.787243   0.464720   0.518271  -2.655664
    7  C  1  X   -0.360165   0.336860   0.634630   0.348308   0.891131
    8  C  1  Y   -0.284537   0.409492  -0.005469   0.180830   0.752285
    9  C  1  Z   -0.158471   0.032736  -0.311417   0.098346   0.061064
   10  C  1 XX   -0.246649  -0.742998   0.152791  -0.756362   0.672004
   11  C  1 YY    0.260632   0.551108   0.222647  -0.664827   0.704824
   12  C  1 ZZ   -0.036110   0.539427   0.309845  -0.774867   0.771325
   13  C  1 XY    0.404866  -0.405376  -0.024298  -0.192096  -0.114910
   14  C  1 XZ    0.200396  -0.237704   0.021356  -0.063810  -0.066981
   15  C  1 YZ    0.101763  -0.106474   0.028928  -0.025985  -0.089648
   16  C  2  S   -0.020727  -0.037179   0.043211  -0.425769  -0.058113
   17  C  2  S   -0.737821  -0.153791  -0.333276   2.661769   0.348059
   18  C  2  X   -0.875900  -0.196872   0.035200  -0.180166   0.009327
   19  C  2  Y   -0.372983  -0.080064   0.031070  -0.144320  -0.023168
   20  C  2  Z    0.199329   0.056054   0.004768   0.057785  -0.010989
   21  C  2  S   -1.062627   0.500245  -2.545135   0.483759   1.159821
   22  C  2  X   -0.622673  -0.492567  -0.701720  -0.259060  -0.285958
   23  C  2  Y   -0.221086   0.310595  -1.351607  -0.437569   0.105500
   24  C  2  Z    0.156624   0.002535   0.357792   0.078712  -0.017750
   25  C  2 XX   -0.631133  -0.450137   0.300636  -1.774905  -0.277105
   26  C  2 YY    0.415999   0.347475   0.142605  -1.749347  -0.274409
   27  C  2 ZZ    0.178292  -0.125919   0.300539  -1.556068  -0.210965
   28  C  2 XY   -0.670513  -0.140954   0.080839  -0.112818   0.055452
   29  C  2 XZ    0.189440   0.056244  -0.020964   0.068235  -0.001831
   30  C  2 YZ    0.065333  -0.015917   0.031641   0.059419  -0.028761
   31  O  3  S   -0.042034   0.001585  -0.539106  -0.094953   0.066625
   32  O  3  S   -0.414485  -0.036568  -0.303551  -0.071556   0.078910
   33  O  3  X   -0.225404  -0.057108   0.263861  -0.119113  -0.058309
   34  O  3  Y   -0.148110  -0.040522   0.076124  -0.114568   0.002209
   35  O  3  Z    0.044127   0.016724  -0.030980   0.044585   0.034763
   36  O  3  S    2.006780   0.177306   6.141884   1.312058  -0.832118
   37  O  3  X   -0.941823  -0.049767  -1.215844  -0.487952   0.236683
   38  O  3  Y   -0.833655  -0.342530  -0.306641  -0.175849  -0.008397
   39  O  3  Z    0.337525   0.057894   0.159141   0.071680  -0.082055
   40  O  3 XX    0.365249  -0.025484  -1.621060  -0.066945   0.192533
   41  O  3 YY    0.099462   0.193672  -1.801568  -0.223260   0.248794
   42  O  3 ZZ   -0.372351  -0.047042  -1.873020  -0.387999   0.231767
   43  O  3 XY    0.905368   0.316383   0.015670   0.172905  -0.004337
   44  O  3 XZ   -0.343009  -0.047157  -0.019372  -0.067672   0.024636
   45  O  3 YZ   -0.242845  -0.094789  -0.043269  -0.077811  -0.022397
   46  H  4  S   -0.148039  -0.191830   0.034336   0.214461  -0.027776
   47  H  4  S    0.110439   0.192774  -0.292146  -0.482696  -0.114192
   48  F  5  S   -0.004679   0.013449  -0.055816  -0.045571  -0.633069
   49  F  5  S    0.520225  -0.966570  -0.152493  -0.158805  -1.954882
   50  F  5  X    0.127794  -0.107062   0.000553   0.030404  -0.278253
   51  F  5  Y   -0.023311  -0.061215  -0.030270  -0.016134  -0.099893
   52  F  5  Z    0.019298  -0.036356  -0.026227  -0.002881  -0.082519
   53  F  5  S   -1.018485   2.004644   0.752044   0.684400   8.366417
   54  F  5  X   -0.613698   1.229963   0.004015   0.185272   1.021036
   55  F  5  Y    0.004274   0.537493   0.094436   0.140821   0.337355
   56  F  5  Z   -0.080396   0.317608   0.107322   0.061437   0.278470
   57  F  5 XX   -0.513440   0.791329  -0.242632  -0.031703  -2.322138
   58  F  5 YY    0.285286  -0.171939  -0.216167  -0.194909  -2.610175
   59  F  5 ZZ    0.219219  -0.308644  -0.196697  -0.181694  -2.584080
   60  F  5 XY   -0.000406   0.672054   0.017975   0.121785   0.108636
   61  F  5 XZ   -0.084962   0.357306   0.039074   0.040240   0.080598
   62  F  5 YZ    0.060407   0.163540   0.036565   0.025557   0.015406
   63  H  6  S   -0.001281  -0.026550  -0.048145   0.089322   0.074046
   64  H  6  S    0.163182   0.185795   0.279174  -0.279691   0.221538
   65  H  7  S    0.073731   0.097525  -0.129846  -0.101462  -0.014177
   66  H  7  S    0.203645   0.021417  -0.534797  -0.243645  -0.010570

                     66
                    4.8236
                     A   
    1  C  1  S   -0.398077
    2  C  1  S    2.308854
    3  C  1  X    0.206345
    4  C  1  Y    0.273179
    5  C  1  Z    0.066292
    6  C  1  S    0.837141
    7  C  1  X    1.070684
    8  C  1  Y    0.302381
    9  C  1  Z    0.293796
   10  C  1 XX   -2.037831
   11  C  1 YY   -1.584691
   12  C  1 ZZ   -1.410334
   13  C  1 XY   -0.027416
   14  C  1 XZ   -0.145577
   15  C  1 YZ   -0.087080
   16  C  2  S    0.188418
   17  C  2  S   -1.190995
   18  C  2  X   -0.051662
   19  C  2  Y    0.228337
   20  C  2  Z   -0.031970
   21  C  2  S   -0.774414
   22  C  2  X    0.184114
   23  C  2  Y    0.018922
   24  C  2  Z   -0.105149
   25  C  2 XX    1.000328
   26  C  2 YY    0.972854
   27  C  2 ZZ    0.669633
   28  C  2 XY   -0.114182
   29  C  2 XZ   -0.031639
   30  C  2 YZ   -0.048262
   31  O  3  S   -0.000524
   32  O  3  S    0.073293
   33  O  3  X    0.079590
   34  O  3  Y    0.032484
   35  O  3  Z    0.000882
   36  O  3  S   -0.204822
   37  O  3  X    0.288875
   38  O  3  Y    0.150679
   39  O  3  Z   -0.120078
   40  O  3 XX   -0.208003
   41  O  3 YY   -0.028160
   42  O  3 ZZ    0.048124
   43  O  3 XY   -0.076459
   44  O  3 XZ    0.085193
   45  O  3 YZ    0.006297
   46  H  4  S   -0.119758
   47  H  4  S    0.242204
   48  F  5  S   -0.293291
   49  F  5  S   -1.147254
   50  F  5  X   -0.093139
   51  F  5  Y   -0.040586
   52  F  5  Z   -0.028899
   53  F  5  S    4.316150
   54  F  5  X    0.969151
   55  F  5  Y    0.400302
   56  F  5  Z    0.230904
   57  F  5 XX   -0.667608
   58  F  5 YY   -1.209286
   59  F  5 ZZ   -1.322685
   60  F  5 XY    0.310411
   61  F  5 XZ    0.171161
   62  F  5 YZ    0.086212
   63  H  6  S    0.120530
   64  H  6  S   -0.414671
   65  H  7  S   -0.000153
   66  H  7  S   -0.372750
 ...... END OF RHF CALCULATION ......
 STEP CPU TIME =     0.52 TOTAL CPU TIME =        0.7 (    0.0 MIN)
 TOTAL WALL CLOCK TIME=        0.8 SECONDS, CPU UTILIZATION IS  85.54%

     ----------------------------------------------------------------
     PROPERTY VALUES FOR THE RHF   SELF-CONSISTENT FIELD WAVEFUNCTION
     ----------------------------------------------------------------

          -----------------
          ENERGY COMPONENTS
          -----------------

         WAVEFUNCTION NORMALIZATION =       1.0000000000

                ONE ELECTRON ENERGY =    -576.9708890235
                TWO ELECTRON ENERGY =     209.1519859453
           NUCLEAR REPULSION ENERGY =     116.2098389111
                                      ------------------
                       TOTAL ENERGY =    -251.6090641671

 ELECTRON-ELECTRON POTENTIAL ENERGY =     209.1519859453
  NUCLEUS-ELECTRON POTENTIAL ENERGY =    -828.2049780632
   NUCLEUS-NUCLEUS POTENTIAL ENERGY =     116.2098389111
                                      ------------------
             TOTAL POTENTIAL ENERGY =    -502.8431532068
               TOTAL KINETIC ENERGY =     251.2340890397
                 VIRIAL RATIO (V/T) =       2.0014925328

          ---------------------------------------
          MULLIKEN AND LOWDIN POPULATION ANALYSES
          ---------------------------------------

     ATOMIC MULLIKEN POPULATION IN EACH MOLECULAR ORBITAL

                      1          2          3          4          5

                  2.000000   2.000000   2.000000   2.000000   2.000000

    1             0.000031   0.000000   0.000538   1.999027   0.155085
    2            -0.000009  -0.000127   1.999759   0.000904   0.013989
    3             0.000000   2.000162  -0.000782   0.000004   0.003138
    4            -0.000000  -0.000001   0.000433  -0.000003   0.000126
    5             1.999979  -0.000000   0.000001  -0.000627   1.825594
    6            -0.000002  -0.000000   0.000018   0.000536   0.001931
    7            -0.000000  -0.000034   0.000034   0.000159   0.000137

                      6          7          8          9         10

                  2.000000   2.000000   2.000000   2.000000   2.000000

    1             0.060248   0.828186   0.195971   0.365871   0.411739
    2             0.381056   0.616069   0.798042   0.195722   0.184739
    3             1.526786   0.259970   0.444583   0.519823   0.332074
    4            -0.002839   0.032125   0.335629   0.025611   0.007133
    5             0.009272   0.187074   0.075760   0.788906   0.896486
    6             0.000955   0.073041   0.050282   0.057829   0.160917
    7             0.024522   0.003535   0.099734   0.046238   0.006912

                     11         12         13         14         15

                  2.000000   2.000000   2.000000   2.000000   2.000000

    1             0.213701   0.142639   0.049438   0.254408   0.347045
    2             0.297049   0.194960   0.260072   0.175439   0.411255
    3             0.621462   0.214139   0.908730   0.931502   0.527153
    4             0.052343   0.129954   0.031119   0.013897   0.130715
    5             0.776285   1.257368   0.678938   0.367865   0.363530
    6             0.026780   0.012913   0.033554   0.242214   0.111436
    7             0.012380   0.048026   0.038149   0.014676   0.108866

                     16

                  2.000000

    1             1.148830
    2             0.145085
    3             0.304268
    4             0.007615
    5             0.169073
    6             0.030436
    7             0.194693

               ----- POPULATIONS IN EACH AO -----
                             MULLIKEN      LOWDIN
              1  C  1  S      1.99674     1.97873
              2  C  1  S      0.63003     0.35973
              3  C  1  X      0.52039     0.47716
              4  C  1  Y      0.66044     0.61119
              5  C  1  Z      0.72369     0.65749
              6  C  1  S      0.66225     0.34802
              7  C  1  X      0.12253     0.23290
              8  C  1  Y      0.31194     0.46555
              9  C  1  Z      0.45623     0.53350
             10  C  1 XX      0.02766     0.18506
             11  C  1 YY      0.00064     0.14995
             12  C  1 ZZ      0.01363     0.15935
             13  C  1 XY      0.02734     0.05449
             14  C  1 XZ      0.01280     0.02702
             15  C  1 YZ      0.00644     0.01188
             16  C  2  S      1.99681     1.97673
             17  C  2  S      0.71930     0.37651
             18  C  2  X      0.73583     0.65702
             19  C  2  Y      0.76817     0.68006
             20  C  2  Z      0.34681     0.30855
             21  C  2  S      0.44471     0.30475
             22  C  2  X      0.11049     0.26087
             23  C  2  Y      0.19575     0.37175
             24  C  2  Z      0.24532     0.30747
             25  C  2 XX      0.02783     0.19593
             26  C  2 YY      0.04531     0.20512
             27  C  2 ZZ     -0.02072     0.11058
             28  C  2 XY      0.03012     0.05377
             29  C  2 XZ      0.02009     0.03885
             30  C  2 YZ      0.00820     0.01415
             31  O  3  S      1.99556     1.97754
             32  O  3  S      0.91248     0.72307
             33  O  3  X      1.00872     0.95932
             34  O  3  Y      0.90056     0.85812
             35  O  3  Z      0.93781     0.90074
             36  O  3  S      0.95421     0.45848
             37  O  3  X      0.56724     0.60335
             38  O  3  Y      0.58233     0.62098
             39  O  3  Z      0.67864     0.68412
             40  O  3 XX      0.01669     0.18405
             41  O  3 YY      0.01313     0.18355
             42  O  3 ZZ      0.00007     0.17223
             43  O  3 XY      0.01457     0.02134
             44  O  3 XZ      0.00934     0.01127
             45  O  3 YZ      0.00167     0.00275
             46  H  4  S      0.52803     0.48734
             47  H  4  S      0.23582     0.33183
             48  F  5  S      1.99537     1.97785
             49  F  5  S      0.97272     0.85450
             50  F  5  X      0.96102     0.91264
             51  F  5  Y      1.14834     1.11665
             52  F  5  Z      1.18613     1.15827
             53  F  5  S      0.87529     0.50818
             54  F  5  X      0.64762     0.66463
             55  F  5  Y      0.74327     0.76514
             56  F  5  Z      0.75116     0.77412
             57  F  5 XX      0.04721     0.17146
             58  F  5 YY      0.02942     0.16349
             59  F  5 ZZ      0.02861     0.16186
             60  F  5 XY      0.00474     0.00814
             61  F  5 XZ      0.00394     0.00912
             62  F  5 YZ      0.00065     0.00152
             63  H  6  S      0.51955     0.48412
             64  H  6  S      0.28329     0.34257
             65  H  7  S      0.33948     0.30974
             66  H  7  S      0.25855     0.32179

          ----- MULLIKEN ATOMIC OVERLAP POPULATIONS -----
          (OFF-DIAGONAL ELEMENTS NEED TO BE MULTIPLIED BY 2)

             1           2           3           4           5

    1    5.2234768
    2    0.3321280   4.8432394
    3   -0.1830549   0.3494237   8.3904235
    4   -0.0256494   0.3713070  -0.0333930   0.4401238
    5    0.1975318  -0.0327042   0.0018555   0.0004525   9.2585927
    6    0.3724027  -0.0509297   0.0023919   0.0008748  -0.0271069
    7    0.2559220  -0.1384611   0.0653674   0.0101388  -0.0031180

             6           7

    6    0.5187286
    7   -0.0135217   0.4217002

          TOTAL MULLIKEN AND LOWDIN ATOMIC POPULATIONS
       ATOM         MULL.POP.    CHARGE          LOW.POP.     CHARGE
    1 C             6.172757   -0.172757         6.251998   -0.251998
    2 C             5.674003    0.325997         5.862090    0.137910
    3 O             8.593014   -0.593014         8.360902   -0.360902
    4 H             0.763854    0.236146         0.819171    0.180829
    5 F             9.395504   -0.395504         9.247611   -0.247611
    6 H             0.802840    0.197160         0.826692    0.173308
    7 H             0.598028    0.401972         0.631536    0.368464

          -------------------------------
          BOND ORDER AND VALENCE ANALYSIS     BOND ORDER THRESHOLD=0.050
          -------------------------------

                   BOND                       BOND                       BOND
  ATOM PAIR DIST  ORDER      ATOM PAIR DIST  ORDER      ATOM PAIR DIST  ORDER
    1   2  1.432  1.147        1   3  2.150  0.052        1   5  1.358  0.823
    1   6  1.085  0.904        1   7  1.521  0.462        2   3  1.249  1.418
    2   4  1.079  0.906        3   7  1.219  0.360

                       TOTAL       BONDED        FREE
      ATOM            VALENCE     VALENCE     VALENCE
    1 C                 3.385       3.385       0.000
    2 C                 3.481       3.481      -0.000
    3 O                 1.845       1.845      -0.000
    4 H                 0.914       0.914       0.000
    5 F                 0.865       0.865      -0.000
    6 H                 0.919       0.919      -0.000
    7 H                 0.839       0.839       0.000

          ---------------------
          ELECTROSTATIC MOMENTS
          ---------------------

 POINT   1           X           Y           Z (BOHR)    CHARGE
                -0.000000    0.000000   -0.000000       -0.00 (A.U.)
         DX          DY          DZ         /D/  (DEBYE)
     0.999103   -1.146697    1.122260    1.890129
 ...... END OF PROPERTY EVALUATION ......
 STEP CPU TIME =     0.00 TOTAL CPU TIME =        0.7 (    0.0 MIN)
 TOTAL WALL CLOCK TIME=        0.8 SECONDS, CPU UTILIZATION IS  84.52%

 --------------------------   -----------------------------
 RHF-MP2 ENERGY CALCULATION   PROGRAM WRITTEN BY K.ISHIMURA
 --------------------------   -----------------------------
 NUMBER OF OCCUPIED ORBITALS            =   16
 NUMBER OF CORRELATED OCCUPIED ORBITALS =   12
 NUMBER OF VIRTUAL ORBITALS             =   50
 NUMBER OF BASIS FUNCTIONS              =   66
 NUMBER OF BASIS SHELLS                 =   22
 AO-TRANSFORMED INTEGRAL THRESHOLD      = 1.00E-09
 HALF-TRANSFORMED INTEGRAL THRESHOLD    = 1.43E-11
 TOTAL DISK REQUIRED (ALL PROCESSORS)=              2 MBYTES
                  DISK SPACE PER CORE=              2 MBYTES, USING P=    1
 MEMORY REQUIRED FOR TRANSFORMATION OF 1ST THREE INDICES=       84934
 MEMORY REQUIRED FOR    4TH INDEX TRANSF. AND MP2 ENERGY=      275342
 BEGINNING MP2 INTEGRAL TRANSFORMATION...
 BEGINNING    1ST SHELL LOOP...

 RESULTS OF MOLLER-PLESSET 2ND ORDER CORRECTION ARE
               E(0)=      -251.6090641671
               E(1)=         0.0
               E(2)=        -0.6175454563
             E(MP2)=      -252.2266096233
 SPIN-COMPONENT-SCALED MP2 RESULTS ARE
              E(2S)=        -0.4507819486
              E(2T)=        -0.1667635076
             E(2ST)=        -0.5965261742 = 6/5 * E(2S) + 1/3 * E(2T)
            SCS-MP2=      -252.2055903413
 ..... DONE WITH MP2 ENERGY .....
 STEP CPU TIME =     0.78 TOTAL CPU TIME =        1.5 (    0.0 MIN)
 TOTAL WALL CLOCK TIME=        1.6 SECONDS, CPU UTILIZATION IS  93.13%
               580000  WORDS OF DYNAMIC MEMORY USED
 EXECUTION OF GAMESS TERMINATED NORMALLY Fri Nov  3 17:47:46 2017
 DDI: 263640 bytes (0.3 MB / 0 MWords) used by master data server.

 ----------------------------------------
 CPU timing information for all processes
 ========================================
 0: 1.340 + 0.151 = 1.492
 ----------------------------------------
 ddikick.x: exited gracefully.
