
 Distributed Data Interface kickoff program.
 Initiating 1 compute processes on 1 nodes to run the following command:
 /usr/local/gamess-141205/gamess.00.x /home/webmodemo/webmo/guest/344660/input 

          ******************************************************
          *         GAMESS VERSION =  5 DEC 2014 (R1)          *
          *             FROM IOWA STATE UNIVERSITY             *
          * M.W.SCHMIDT, K.K.BALDRIDGE, J.A.BOATZ, S.T.ELBERT, *
          *   M.S.GORDON, J.H.JENSEN, S.KOSEKI, N.MATSUNAGA,   *
          *          K.A.NGUYEN, S.J.SU, T.L.WINDUS,           *
          *       TOGETHER WITH M.DUPUIS, J.A.MONTGOMERY       *
          *         J.COMPUT.CHEM.  14, 1347-1363(1993)        *
          **************** 64 BIT LINUX VERSION ****************

  SINCE 1993, STUDENTS AND POSTDOCS WORKING AT IOWA STATE UNIVERSITY
  AND ALSO IN THEIR VARIOUS JOBS AFTER LEAVING ISU HAVE MADE IMPORTANT
  CONTRIBUTIONS TO THE CODE:
     IVANA ADAMOVIC, CHRISTINE AIKENS, YURI ALEXEEV, POOJA ARORA,
     ANDREY ASADCHEV, ROB BELL, PRADIPTA BANDYOPADHYAY, JONATHAN BENTZ,
     BRETT BODE, KURT BRORSEN, CALEB CARLIN, GALINA CHABAN, WEI CHEN,
     CHEOL HO CHOI, PAUL DAY, ALBERT DEFUSCO, NUWAN DESILVA, TIM DUDLEY,
     DMITRI FEDOROV, GRAHAM FLETCHER, MARK FREITAG, KURT GLAESEMANN,
     DAN KEMP, GRANT MERRILL, NORIYUKI MINEZAWA, JONATHAN MULLIN,
     TAKESHI NAGATA, SEAN NEDD, HEATHER NETZLOFF, BOSILJKA NJEGIC, RYAN OLSON,
     MIKE PAK, SPENCER PRUITT, LUKE ROSKOP, JIM SHOEMAKER, LYUDMILA SLIPCHENKO,
     TONY SMITH, SAROM SOK, JIE SONG, TETSUYA TAKETSUGU, SIMON WEBB,
     PENG XU, SOOHAENG YOO, FEDERICO ZAHARIEV

  ADDITIONAL CODE HAS BEEN PROVIDED BY COLLABORATORS IN OTHER GROUPS:
     IOWA STATE UNIVERSITY:
          JOE IVANIC, AARON WEST, LAIMUTIS BYTAUTAS, KLAUS RUEDENBERG
     UNIVERSITY OF TOKYO: KIMIHIKO HIRAO, TAKAHITO NAKAJIMA,
          TAKAO TSUNEDA, MUNEAKI KAMIYA, SUSUMU YANAGISAWA,
          KIYOSHI YAGI, MAHITO CHIBA, SEIKEN TOKURA, NAOAKI KAWAKAMI
     UNIVERSITY OF AARHUS: FRANK JENSEN
     UNIVERSITY OF IOWA: VISVALDAS KAIRYS, HUI LI
     NATIONAL INST. OF STANDARDS AND TECHNOLOGY: WALT STEVENS, DAVID GARMER
     UNIVERSITY OF PISA: BENEDETTA MENNUCCI, JACOPO TOMASI
     UNIVERSITY OF MEMPHIS: HENRY KURTZ, PRAKASHAN KORAMBATH
     UNIVERSITY OF ALBERTA: TOBY ZENG, MARIUSZ KLOBUKOWSKI
     UNIVERSITY OF NEW ENGLAND: MARK SPACKMAN
     MIE UNIVERSITY: HIROAKI UMEDA
     NAT. INST. OF ADVANCED INDUSTRIAL SCIENCE AND TECHNOLOGY: KAZUO KITAURA
     MICHIGAN STATE UNIVERSITY:
          KAROL KOWALSKI, MARTA WLOCH, JEFFREY GOUR, JESSE LUTZ,
          WEI LI, PIOTR PIECUCH
     UNIVERSITY OF SILESIA: MONIKA MUSIAL, STANISLAW KUCHARSKI
     FACULTES UNIVERSITAIRES NOTRE-DAME DE LA PAIX:
          OLIVIER QUINET, BENOIT CHAMPAGNE
     UNIVERSITY OF CALIFORNIA - SANTA BARBARA: BERNARD KIRTMAN
     INSTITUTE FOR MOLECULAR SCIENCE:
          KAZUYA ISHIMURA, MICHIO KATOUDA, AND SHIGERU NAGASE
     UNIVERSITY OF NOTRE DAME: ANNA POMOGAEVA, DAN CHIPMAN
     KYUSHU UNIVERSITY:
          HARUYUKI NAKANO,
          FENG LONG GU, JACEK KORCHOWIEC, MARCIN MAKOWSKI, AND YURIKO AOKI,
          HIROTOSHI MORI AND EISAKU MIYOSHI
     PENNSYLVANIA STATE UNIVERSITY:
          TZVETELIN IORDANOV, CHET SWALINA, JONATHAN SKONE,
          SHARON HAMMES-SCHIFFER
     WASEDA UNIVERSITY:
          MASATO KOBAYASHI, TOMOKO AKAMA, TSUGUKI TOUMA,
          TAKESHI YOSHIKAWA, YASUHIRO IKABATA, HIROMI NAKAI
     NANJING UNIVERSITY: SHUHUA LI
     UNIVERSITY OF NEBRASKA:
          PEIFENG SU, DEJUN SI, NANDUN THELLAMUREGE, YALI WANG, HUI LI
     UNIVERSITY OF ZURICH: ROBERTO PEVERATI, KIM BALDRIDGE
     N. COPERNICUS UNIVERSITY AND JACKSON STATE UNIVERSITY:
          MARIA BARYSZ
     UNIVERSITY OF COPENHAGEN: CASPER STEINMANN
     TOKYO INSTITUTE OF TECHNOLOGY: HIROYA NAKATA
     NAGOYA UNIVERSITY: YOSHIO NISHIMOTO, STEPHAN IRLE

 EXECUTION OF GAMESS BEGUN Fri Nov  3 17:34:01 2017

            ECHO OF THE FIRST FEW INPUT CARDS -
 INPUT CARD> $CONTRL SCFTYP=RHF RUNTYP=HESSIAN                                              
 INPUT CARD>       ICHARG=0 MULT=1 COORD=ZMTMPC $END                                        
 INPUT CARD> $BASIS GBASIS=N31 NGAUSS=6 NDFUNC=1 $END                                       
 INPUT CARD> $DATA                                                                          
 INPUT CARD>C2H3OF                                                                          
 INPUT CARD>C1 1                                                                            
 INPUT CARD>C 0.0000000 0 0.0000000 0 0.0000000 0 0 0 0                                     
 INPUT CARD>C 1.4322699 1 0.0000000 0 0.0000000 0 1 0 0                                     
 INPUT CARD>O 1.2489173 1 106.44013 1 0.0000000 0 2 1 0                                     
 INPUT CARD>H 1.0786048 1 132.72068 1 -179.02257 1 2 1 3                                    
 INPUT CARD>F 1.3577871 1 117.98379 1 153.60663 1 1 2 3                                     
 INPUT CARD>H 1.0846043 1 108.92215 1 -79.760727 1 1 2 3                                    
 INPUT CARD>H 1.5214855 1 66.844091 1 8.4661084 1 1 2 3                                     
 INPUT CARD> $END                                                                           
 INPUT CARD>                                                                                
 INPUT CARD>                                                                                
    1000000 WORDS OF MEMORY AVAILABLE

     BASIS OPTIONS
     -------------
     GBASIS=N31          IGAUSS=       6      POLAR=POPN31  
     NDFUNC=       1     NFFUNC=       0     DIFFSP=       F
     NPFUNC=       0      DIFFS=       F     BASNAM=        


     RUN TITLE
     ---------
 C2H3OF                                                                          

 THE POINT GROUP OF THE MOLECULE IS C1      
 THE ORDER OF THE PRINCIPAL AXIS IS     1

 YOUR FULLY SUBSTITUTED Z-MATRIX IS
 C   
 C      1   1.4322699
 O      2   1.2489173  1  106.4401
 H      2   1.0786048  1  132.7207  3 -179.0226  0
 F      1   1.3577871  2  117.9838  3  153.6066  0
 H      1   1.0846043  2  108.9222  3  -79.7607  0
 H      1   1.5214855  2   66.8441  3    8.4661  0

 THE MOMENTS OF INERTIA ARE (AMU-ANGSTROM**2)
 IXX=    12.602   IYY=   109.980   IZZ=   117.571

 ATOM      ATOMIC                      COORDINATES (BOHR)
           CHARGE         X                   Y                   Z
 C           6.0    -0.7928124612        0.7586467910        0.2920614363
 C           6.0     1.2862678509       -0.9737561029        0.2487472806
 O           8.0     3.2081284767        0.3016424704       -0.2511891198
 H           1.0     1.4128228406       -2.9892076648        0.5252853856
 F           9.0    -3.1322726481       -0.1548593670       -0.2332917925
 H           1.0    -0.8019535399        1.7411142174        2.0908261720
 H           1.0     1.6444604912        1.9413167496       -0.6711175836

          INTERNUCLEAR DISTANCES (ANGS.)
          ------------------------------

                1 C          2 C          3 O          4 H          5 F     

   1 C       0.0000000    1.4322699 *  2.1502773 *  2.3045431 *  1.3577871 *
   2 C       1.4322699 *  0.0000000    1.2489173 *  1.0786048 *  2.3916501 *
   3 O       2.1502773 *  1.2489173 *  0.0000000    2.0258388 *  3.3638945  
   4 H       2.3045431 *  1.0786048 *  2.0258388 *  0.0000000    2.8627884 *
   5 F       1.3577871 *  2.3916501 *  3.3638945    2.8627884 *  0.0000000  
   6 H       1.0846043 *  2.0579787 *  2.5727960 *  2.8854526 *  2.0099422 *
   7 H       1.5214855 *  1.6286373 *  1.2193981 *  2.6876322 *  2.7701216 *

                6 H          7 H     

   1 C       1.0846043 *  1.5214855 *
   2 C       2.0579787 *  1.6286373 *
   3 O       2.5727960 *  1.2193981 *
   4 H       2.8854526 *  2.6876322 *
   5 F       2.0099422 *  2.7701216 *
   6 H       0.0000000    1.9553336 *
   7 H       1.9553336 *  0.0000000  

  * ... LESS THAN  3.000


     ATOMIC BASIS SET
     ----------------
 THE CONTRACTED PRIMITIVE FUNCTIONS HAVE BEEN UNNORMALIZED
 THE CONTRACTED BASIS FUNCTIONS ARE NOW NORMALIZED TO UNITY

  SHELL TYPE  PRIMITIVE        EXPONENT          CONTRACTION COEFFICIENT(S)

 C         

      1   S       1          3047.5248800    0.001834737132
      1   S       2           457.3695180    0.014037322813
      1   S       3           103.9486850    0.068842622264
      1   S       4            29.2101553    0.232184443216
      1   S       5             9.2866630    0.467941348435
      1   S       6             3.1639270    0.362311985337

      2   L       7             7.8682723   -0.119332419775    0.068999066591
      2   L       8             1.8812885   -0.160854151696    0.316423960957
      2   L       9             0.5442493    1.143456437840    0.744308290898

      3   L      10             0.1687145    1.000000000000    1.000000000000

      4   D      11             0.8000000    1.000000000000

 C         

      5   S      12          3047.5248800    0.001834737132
      5   S      13           457.3695180    0.014037322813
      5   S      14           103.9486850    0.068842622264
      5   S      15            29.2101553    0.232184443216
      5   S      16             9.2866630    0.467941348435
      5   S      17             3.1639270    0.362311985337

      6   L      18             7.8682723   -0.119332419775    0.068999066591
      6   L      19             1.8812885   -0.160854151696    0.316423960957
      6   L      20             0.5442493    1.143456437840    0.744308290898

      7   L      21             0.1687145    1.000000000000    1.000000000000

      8   D      22             0.8000000    1.000000000000

 O         

      9   S      23          5484.6716600    0.001831074430
      9   S      24           825.2349460    0.013950172200
      9   S      25           188.0469580    0.068445078098
      9   S      26            52.9645000    0.232714335992
      9   S      27            16.8975704    0.470192897984
      9   S      28             5.7996353    0.358520852987

     10   L      29            15.5396162   -0.110777549525    0.070874268231
     10   L      30             3.5999336   -0.148026262701    0.339752839147
     10   L      31             1.0137618    1.130767015354    0.727158577316

     11   L      32             0.2700058    1.000000000000    1.000000000000

     12   D      33             0.8000000    1.000000000000

 H         

     13   S      34            18.7311370    0.033494604338
     13   S      35             2.8253944    0.234726953484
     13   S      36             0.6401217    0.813757326146

     14   S      37             0.1612778    1.000000000000

 F         

     15   S      38          7001.7130900    0.001819616901
     15   S      39          1051.3660900    0.013916079607
     15   S      40           239.2856900    0.068405324535
     15   S      41            67.3974453    0.233185760119
     15   S      42            21.5199573    0.471267439240
     15   S      43             7.4031013    0.356618546182

     16   L      44            20.8479528   -0.108506975109    0.071628724237
     16   L      45             4.8083083   -0.146451658147    0.345912102697
     16   L      46             1.3440699    1.128688581135    0.722469956367

     17   L      47             0.3581514    1.000000000000    1.000000000000

     18   D      48             0.8000000    1.000000000000

 H         

     19   S      49            18.7311370    0.033494604338
     19   S      50             2.8253944    0.234726953484
     19   S      51             0.6401217    0.813757326146

     20   S      52             0.1612778    1.000000000000

 H         

     21   S      53            18.7311370    0.033494604338
     21   S      54             2.8253944    0.234726953484
     21   S      55             0.6401217    0.813757326146

     22   S      56             0.1612778    1.000000000000

 TOTAL NUMBER OF BASIS SET SHELLS             =   22
 NUMBER OF CARTESIAN GAUSSIAN BASIS FUNCTIONS =   66
 NUMBER OF ELECTRONS                          =   32
 CHARGE OF MOLECULE                           =    0
 SPIN MULTIPLICITY                            =    1
 NUMBER OF OCCUPIED ORBITALS (ALPHA)          =   16
 NUMBER OF OCCUPIED ORBITALS (BETA )          =   16
 TOTAL NUMBER OF ATOMS                        =    7
 THE NUCLEAR REPULSION ENERGY IS      116.2098389111

     $CONTRL OPTIONS
     ---------------
 SCFTYP=RHF          RUNTYP=HESSIAN      EXETYP=RUN     
 MPLEVL=       0     CITYP =NONE         CCTYP =NONE         VBTYP =NONE    
 DFTTYP=NONE         TDDFT =NONE    
 MULT  =       1     ICHARG=       0     NZVAR =       0     COORD =ZMTMPC  
 PP    =NONE         RELWFN=NONE         LOCAL =NONE         NUMGRD=       F
 ISPHER=      -1     NOSYM =       0     MAXIT =      30     UNITS =ANGS    
 PLTORB=       F     MOLPLT=       F     AIMPAC=       F     FRIEND=        
 NPRINT=       7     IREST =       0     GEOM  =INPUT   
 NORMF =       0     NORMP =       0     ITOL  =      20     ICUT  =       9
 INTTYP=BEST         GRDTYP=BEST         QMTTOL= 1.0E-06

     $SYSTEM OPTIONS
     ---------------
  REPLICATED MEMORY=     1000000 WORDS (ON EVERY NODE).
 DISTRIBUTED MEMDDI=           0 MILLION WORDS IN AGGREGATE,
 MEMDDI DISTRIBUTED OVER   1 PROCESSORS IS           0 WORDS/PROCESSOR.
 TOTAL MEMORY REQUESTED ON EACH PROCESSOR=     1000000 WORDS.
 TIMLIM=      525600.00 MINUTES, OR     365.0 DAYS.
 PARALL= F  BALTYP=  DLB     KDIAG=    0  COREFL= F
 MXSEQ2=     300 MXSEQ3=     150  mem10=         0

          ----------------
          PROPERTIES INPUT
          ----------------

     MOMENTS            FIELD           POTENTIAL          DENSITY
 IEMOM =       1   IEFLD =       0   IEPOT =       0   IEDEN =       0
 WHERE =COMASS     WHERE =NUCLEI     WHERE =NUCLEI     WHERE =NUCLEI  
 OUTPUT=BOTH       OUTPUT=BOTH       OUTPUT=BOTH       OUTPUT=BOTH    
 IEMINT=       0   IEFINT=       0                     IEDINT=       0
                                                       MORB  =       0
          EXTRAPOLATION IN EFFECT
          SOSCF IN EFFECT
 ORBITAL PRINTING OPTION: NPREO=     1    66     2     1

     -------------------------------
     INTEGRAL TRANSFORMATION OPTIONS
     -------------------------------
     NWORD  =            0
     CUTOFF = 1.0E-09     MPTRAN =       0
     DIRTRF =       F     AOINTS =DUP     

          ----------------------
          INTEGRAL INPUT OPTIONS
          ----------------------
 NOPK  =       1 NORDER=       0 SCHWRZ=       T

     ------------------------------------------
     THE POINT GROUP IS C1 , NAXIS= 1, ORDER= 1
     ------------------------------------------

     DIMENSIONS OF THE SYMMETRY SUBSPACES ARE
 A   =   66

 ..... DONE SETTING UP THE RUN .....
 STEP CPU TIME =     0.01 TOTAL CPU TIME =        0.0 (    0.0 MIN)
 TOTAL WALL CLOCK TIME=        0.0 SECONDS, CPU UTILIZATION IS 100.00%

     ---------------------------------
     HESSIAN MATRIX CONTROL PARAMETERS
     ---------------------------------
     METHOD=ANALYTIC   NVIB  =       2   VIBSIZ= 0.01000
     RDHESS=       F   PURIFY=       F   PRTIFC=       F
     VIBANL=       T   DECOMP=       F   PROJCT=       F
     SCLFAC= 1.00000   PRTSCN=       F   NPRT  =       0
     PULCOR=       F   NPUN  =       0   REDOVB=       T
     THERMOCHEMISTRY WILL BE PRINTED FOR    1 TEMPERATURES:
      298.15000

     ------------------------------
     CPHF RESPONSE SOLUTION OPTIONS
     ------------------------------
     POLAR  =       F     NWORD  =       0
     CPHF   =AO      

          ********************
          1 ELECTRON INTEGRALS
          ********************
 ...... END OF ONE-ELECTRON INTEGRALS ......
 STEP CPU TIME =     0.00 TOTAL CPU TIME =        0.0 (    0.0 MIN)
 TOTAL WALL CLOCK TIME=        0.0 SECONDS, CPU UTILIZATION IS 100.00%

          -------------
          GUESS OPTIONS
          -------------
          GUESS =HUCKEL            NORB  =       0          NORDER=       0
          MIX   =       F          PRTMO =       F          PUNMO =       F
          TOLZ  = 1.0E-08          TOLE  = 1.0E-05
          SYMDEN=       F          PURIFY=       F

 INITIAL GUESS ORBITALS GENERATED BY HUCKEL   ROUTINE.
 HUCKEL GUESS REQUIRES     39109 WORDS.

 SYMMETRIES FOR INITIAL GUESS ORBITALS FOLLOW.   BOTH SET(S).
    16 ORBITALS ARE OCCUPIED (    4 CORE ORBITALS).
     5=A        6=A        7=A        8=A        9=A       10=A       11=A   
    12=A       13=A       14=A       15=A       16=A       17=A       18=A   
    19=A       20=A       21=A       22=A       23=A       24=A       25=A   
    26=A   
 ...... END OF INITIAL ORBITAL SELECTION ......
 STEP CPU TIME =     0.01 TOTAL CPU TIME =        0.0 (    0.0 MIN)
 TOTAL WALL CLOCK TIME=        0.0 SECONDS, CPU UTILIZATION IS 100.00%

                    ----------------------
                    AO INTEGRAL TECHNOLOGY
                    ----------------------
     S,P,L SHELL ROTATED AXIS INTEGRALS, REPROGRAMMED BY
        KAZUYA ISHIMURA (IMS) AND JOSE SIERRA (SYNSTAR).
     S,P,D,L SHELL ROTATED AXIS INTEGRALS PROGRAMMED BY
        KAZUYA ISHIMURA (INSTITUTE FOR MOLECULAR SCIENCE).
     S,P,D,F,G SHELL TO TOTAL QUARTET ANGULAR MOMENTUM SUM 5,
        ERIC PROGRAM BY GRAHAM FLETCHER (ELORET AND NASA ADVANCED
        SUPERCOMPUTING DIVISION, AMES RESEARCH CENTER).
     S,P,D,F,G,L SHELL GENERAL RYS QUADRATURE PROGRAMMED BY
        MICHEL DUPUIS (PACIFIC NORTHWEST NATIONAL LABORATORY).

          --------------------
          2 ELECTRON INTEGRALS
          --------------------

 THE -PK- OPTION IS OFF, THE INTEGRALS ARE NOT IN SUPERMATRIX FORM.
 STORING   15000 INTEGRALS/RECORD ON DISK, USING 12 BYTES/INTEGRAL.
 TWO ELECTRON INTEGRAL EVALUATION REQUIRES   90649 WORDS OF MEMORY.
 SCHWARZ INEQUALITY OVERHEAD:      2205 INTEGRALS, T=        0.00
 II,JST,KST,LST =  1  1  1  1 NREC =         1 INTLOC =    1
 II,JST,KST,LST =  2  1  1  1 NREC =         1 INTLOC =    2
 II,JST,KST,LST =  3  1  1  1 NREC =         1 INTLOC =   34
 II,JST,KST,LST =  4  1  1  1 NREC =         1 INTLOC =  214
 II,JST,KST,LST =  5  1  1  1 NREC =         1 INTLOC = 1189
 II,JST,KST,LST =  6  1  1  1 NREC =         1 INTLOC = 3237
 II,JST,KST,LST =  7  1  1  1 NREC =         2 INTLOC =  988
 II,JST,KST,LST =  8  1  1  1 NREC =         3 INTLOC = 8247
 II,JST,KST,LST =  9  1  1  1 NREC =         7 INTLOC = 6187
 II,JST,KST,LST = 10  1  1  1 NREC =         8 INTLOC = 5357
 II,JST,KST,LST = 11  1  1  1 NREC =        13 INTLOC = 5206
 II,JST,KST,LST = 12  1  1  1 NREC =        20 INTLOC = 5099
 II,JST,KST,LST = 13  1  1  1 NREC =        35 INTLOC = 5630
 II,JST,KST,LST = 14  1  1  1 NREC =        38 INTLOC = 9138
 II,JST,KST,LST = 15  1  1  1 NREC =        42 INTLOC =  998
 II,JST,KST,LST = 16  1  1  1 NREC =        44 INTLOC = 5853
 II,JST,KST,LST = 17  1  1  1 NREC =        56 INTLOC =14503
 II,JST,KST,LST = 18  1  1  1 NREC =        76 INTLOC =14353
 II,JST,KST,LST = 19  1  1  1 NREC =       111 INTLOC = 9106
 II,JST,KST,LST = 20  1  1  1 NREC =       119 INTLOC = 5337
 II,JST,KST,LST = 21  1  1  1 NREC =       127 INTLOC =10357
 II,JST,KST,LST = 22  1  1  1 NREC =       136 INTLOC = 2155
 SCHWARZ INEQUALITY TEST SKIPPED        2604 INTEGRAL BLOCKS.
 TOTAL NUMBER OF NONZERO TWO-ELECTRON INTEGRALS =             2164329
        145 INTEGRAL RECORDS WERE STORED ON DISK FILE  8.
  ...... END OF TWO-ELECTRON INTEGRALS .....
 STEP CPU TIME =     0.17 TOTAL CPU TIME =        0.2 (    0.0 MIN)
 TOTAL WALL CLOCK TIME=        0.2 SECONDS, CPU UTILIZATION IS 100.00%

          --------------------------
                 RHF SCF CALCULATION
          --------------------------

     NUCLEAR ENERGY =       116.2098389111
     MAXIT =   30     NPUNCH=    2
     EXTRAP=T  DAMP=F  SHIFT=F  RSTRCT=F  DIIS=F  DEM=F  SOSCF=T
     DENSITY MATRIX CONV=  1.00E-05
     SOSCF WILL OPTIMIZE     800 ORBITAL ROTATIONS, SOGTOL=   0.250
     MEMORY REQUIRED FOR RHF ITERS=     64616 WORDS.

 ITER EX DEM     TOTAL ENERGY        E CHANGE  DENSITY CHANGE     ORB. GRAD
   1  0  0     -250.8460637385  -250.8460637385   0.314316750   0.000000000
          ---------------START SECOND ORDER SCF---------------
   2  1  0     -251.5620939741    -0.7160302356   0.115944744   0.043072392
   3  2  0     -251.6001202188    -0.0380262447   0.052001229   0.019363999
   4  3  0     -251.6080530464    -0.0079328277   0.011770271   0.003966338
   5  4  0     -251.6087383813    -0.0006853349   0.009230390   0.004171185
   6  5  0     -251.6089913415    -0.0002529602   0.004609180   0.001441383
   7  6  0     -251.6090506831    -0.0000593415   0.001891468   0.000510885
   8  7  0     -251.6090618264    -0.0000111433   0.001243124   0.000235722
   9  8  0     -251.6090639350    -0.0000021085   0.000276518   0.000070978
  10  9  0     -251.6090641291    -0.0000001942   0.000061771   0.000027518
  11 10  0     -251.6090641618    -0.0000000327   0.000036612   0.000011537
  12 11  0     -251.6090641664    -0.0000000046   0.000013624   0.000004453
  13 12  0     -251.6090641670    -0.0000000006   0.000003497   0.000001200
  14 13  0     -251.6090641671    -0.0000000001   0.000001245   0.000000294

          -----------------
          DENSITY CONVERGED
          -----------------
     TIME TO FORM FOCK OPERATORS=       0.4 SECONDS (       0.0 SEC/ITER)
     TIME TO SOLVE SCF EQUATIONS=       0.0 SECONDS (       0.0 SEC/ITER)

 FINAL RHF ENERGY IS     -251.6090641671 AFTER  14 ITERATIONS

          ------------
          EIGENVECTORS
          ------------

                      1          2          3          4          5
                  -26.2795   -20.6305   -11.3747   -11.2866    -1.5889
                     A          A          A          A          A   
    1  C  1  S   -0.000019  -0.000000   0.005234   0.995824  -0.056225
    2  C  1  S    0.000238  -0.000014   0.000147   0.027018   0.096312
    3  C  1  X   -0.000516  -0.000060  -0.000109  -0.001336  -0.076086
    4  C  1  Y   -0.000218   0.000008   0.000142  -0.001369  -0.034579
    5  C  1  Z   -0.000123   0.000016   0.000055   0.000427  -0.014406
    6  C  1  S    0.000266  -0.000128   0.001938  -0.010929   0.027326
    7  C  1  X    0.000271   0.000064   0.000458  -0.002376  -0.002257
    8  C  1  Y   -0.000095   0.000181  -0.001172   0.000730   0.004987
    9  C  1  Z    0.000064  -0.000018  -0.000184  -0.001618  -0.000374
   10  C  1 XX    0.000255  -0.000057  -0.000452  -0.000729   0.017032
   11  C  1 YY    0.000007  -0.000017  -0.000180  -0.001682  -0.004612
   12  C  1 ZZ   -0.000057  -0.000023  -0.000113  -0.001710  -0.007154
   13  C  1 XY    0.000113   0.000020   0.000083   0.000271   0.012689
   14  C  1 XZ    0.000077   0.000001   0.000026   0.000198   0.005622
   15  C  1 YZ    0.000041  -0.000003  -0.000026   0.000172   0.003231
   16  C  2  S    0.000007   0.000005   0.995707  -0.005624  -0.011846
   17  C  2  S    0.000094   0.000485   0.026823  -0.000085   0.021114
   18  C  2  X    0.000012   0.000085   0.001178  -0.000007  -0.009837
   19  C  2  Y   -0.000012   0.000039   0.000735  -0.000105   0.010496
   20  C  2  Z    0.000000  -0.000012  -0.000451   0.000025  -0.001614
   21  C  2  S   -0.000358  -0.000089  -0.007680   0.003676   0.016828
   22  C  2  X    0.000197  -0.000445   0.001197  -0.001739  -0.009455
   23  C  2  Y   -0.000165  -0.000072   0.000794   0.000647   0.002249
   24  C  2  Z    0.000003   0.000087  -0.000155   0.000501  -0.000373
   25  C  2 XX   -0.000074  -0.000357  -0.001358  -0.000456   0.004616
   26  C  2 YY   -0.000017  -0.000220  -0.001301  -0.000339   0.000601
   27  C  2 ZZ    0.000012  -0.000075  -0.002616  -0.000091  -0.001634
   28  C  2 XY    0.000023  -0.000284   0.000294   0.000101  -0.001959
   29  C  2 XZ   -0.000004   0.000096  -0.000328  -0.000026  -0.000296
   30  C  2 YZ    0.000001   0.000087  -0.000262   0.000036  -0.000628
   31  O  3  S    0.000000   0.994669  -0.000252   0.000016  -0.008155
   32  O  3  S   -0.000001   0.021045   0.000529  -0.000046   0.018380
   33  O  3  X   -0.000002  -0.001319  -0.000156  -0.000040  -0.007006
   34  O  3  Y   -0.000006  -0.000379  -0.000068   0.000056  -0.001553
   35  O  3  Z    0.000006   0.000390   0.000041   0.000003   0.000917
   36  O  3  S    0.000026   0.004407  -0.001767   0.000004   0.014731
   37  O  3  X   -0.000036   0.000231   0.001522  -0.000171  -0.001321
   38  O  3  Y    0.000022  -0.000008   0.000580  -0.000515  -0.001581
   39  O  3  Z   -0.000010  -0.000109  -0.000295   0.000195   0.000477
   40  O  3 XX    0.000005  -0.003818  -0.000324   0.000187   0.001112
   41  O  3 YY    0.000002  -0.003995  -0.000004   0.000030   0.000250
   42  O  3 ZZ    0.000003  -0.004048   0.000400  -0.000002   0.000039
   43  O  3 XY    0.000006   0.000100  -0.000227   0.000058   0.000065
   44  O  3 XZ    0.000000  -0.000002   0.000127  -0.000092  -0.000209
   45  O  3 YZ   -0.000005  -0.000076   0.000136   0.000033  -0.000111
   46  H  4  S    0.000016  -0.000000  -0.000262  -0.000128   0.002294
   47  H  4  S   -0.000055  -0.000056   0.002260  -0.000163   0.000612
   48  F  5  S    0.994418  -0.000007  -0.000010  -0.000019  -0.220968
   49  F  5  S    0.017762  -0.000031  -0.000104   0.000875   0.514763
   50  F  5  X    0.000835   0.000003  -0.000048   0.000340   0.059153
   51  F  5  Y    0.000298  -0.000004   0.000029   0.000174   0.020623
   52  F  5  Z    0.000206  -0.000003   0.000006   0.000052   0.014227
   53  F  5  S    0.008218   0.000137   0.000051  -0.001957   0.436347
   54  F  5  X   -0.000574   0.000025   0.000103  -0.001666   0.036611
   55  F  5  Y   -0.000193   0.000020  -0.000001  -0.000881   0.010597
   56  F  5  Z   -0.000139   0.000018   0.000002  -0.000262   0.009924
   57  F  5 XX   -0.004981  -0.000018   0.000045  -0.000616   0.035663
   58  F  5 YY   -0.004618  -0.000024  -0.000039   0.000420   0.023393
   59  F  5 ZZ   -0.004576  -0.000015  -0.000136   0.000618   0.021996
   60  F  5 XY   -0.000189   0.000014  -0.000001  -0.000579   0.005471
   61  F  5 XZ   -0.000113   0.000002   0.000040  -0.000329   0.004015
   62  F  5 YZ   -0.000040   0.000004   0.000021  -0.000180   0.001825
   63  H  6  S   -0.000023   0.000004  -0.000070   0.000044   0.015103
   64  H  6  S   -0.000072  -0.000026   0.000473   0.002679   0.000202
   65  H  7  S   -0.000006   0.000240   0.000252   0.000193   0.005158
   66  H  7  S   -0.000034  -0.000367   0.000371   0.001488  -0.000634

                      6          7          8          9         10
                   -1.4725    -1.0084    -0.8615    -0.7565    -0.7043
                     A          A          A          A          A   
    1  C  1  S   -0.020692  -0.148242   0.069805  -0.046668   0.005015
    2  C  1  S    0.039086   0.282183  -0.127980   0.096919  -0.001211
    3  C  1  X    0.043132   0.104023   0.005328  -0.234497  -0.026147
    4  C  1  Y   -0.011558  -0.069870  -0.072601   0.033661  -0.166245
    5  C  1  Z   -0.001444   0.040364  -0.023931   0.082240  -0.197436
    6  C  1  S    0.039409   0.248391  -0.163766   0.063524  -0.051196
    7  C  1  X    0.018512   0.060639  -0.030263  -0.051789   0.005349
    8  C  1  Y    0.000519   0.005260  -0.022579   0.013210  -0.062225
    9  C  1  Z   -0.004034   0.021299  -0.010769   0.049045  -0.094529
   10  C  1 XX    0.002488   0.003302  -0.004639   0.006774   0.004104
   11  C  1 YY    0.001390   0.003233   0.006632  -0.005316   0.009657
   12  C  1 ZZ   -0.000816   0.001158  -0.003921   0.005296  -0.015813
   13  C  1 XY   -0.005881  -0.010431  -0.007282   0.015323   0.007693
   14  C  1 XZ   -0.001041  -0.001754   0.002209   0.005220   0.005953
   15  C  1 YZ    0.000305   0.005454  -0.005849   0.006309  -0.002306
   16  C  2  S   -0.103282  -0.108428  -0.120139   0.032072   0.005914
   17  C  2  S    0.195675   0.228220   0.258670  -0.070543  -0.018130
   18  C  2  X    0.117540  -0.191180   0.099145   0.058385  -0.168906
   19  C  2  Y    0.098759   0.047362  -0.225110  -0.181717  -0.085924
   20  C  2  Z   -0.032943   0.027607   0.017210   0.047569  -0.054215
   21  C  2  S    0.039093   0.165082   0.257680  -0.023310   0.019104
   22  C  2  X   -0.004427  -0.038119   0.004029   0.036143  -0.053803
   23  C  2  Y   -0.027609   0.002399  -0.071649  -0.052910  -0.047763
   24  C  2  Z    0.005972   0.004726   0.010654   0.011298  -0.028162
   25  C  2 XX    0.014611  -0.000950   0.001992   0.010176  -0.003356
   26  C  2 YY    0.003363   0.014752   0.014696  -0.006229   0.001729
   27  C  2 ZZ   -0.014341  -0.008211  -0.010190   0.002822   0.004520
   28  C  2 XY    0.022085  -0.021439   0.001429  -0.002468  -0.013155
   29  C  2 XZ   -0.009229   0.001945  -0.002089  -0.000499   0.003795
   30  C  2 YZ   -0.006536  -0.001290  -0.002966   0.006336  -0.006976
   31  O  3  S   -0.193133   0.082913   0.038638  -0.048123  -0.029113
   32  O  3  S    0.425125  -0.189969  -0.081090   0.123860   0.061487
   33  O  3  X   -0.122013  -0.087419  -0.021380   0.266827   0.143648
   34  O  3  Y   -0.042689   0.006847  -0.249221  -0.093809   0.130432
   35  O  3  Z    0.019306   0.015696   0.062924   0.032991  -0.156252
   36  O  3  S    0.409140  -0.242305  -0.153120   0.141274   0.144849
   37  O  3  X   -0.067979  -0.035584   0.006447   0.174113   0.072871
   38  O  3  Y   -0.003846  -0.000373  -0.138620  -0.061995   0.074472
   39  O  3  Z    0.006800   0.006375   0.032517   0.020198  -0.097216
   40  O  3 XX    0.018183   0.007122  -0.004553  -0.021172  -0.007567
   41  O  3 YY    0.005007  -0.005435   0.004247   0.010266   0.001946
   42  O  3 ZZ   -0.004039  -0.001768   0.004499   0.011514  -0.002530
   43  O  3 XY    0.001278   0.002602   0.024139   0.006433  -0.010339
   44  O  3 XZ   -0.002793  -0.003101  -0.004216   0.000762   0.013225
   45  O  3 YZ   -0.003917   0.001154  -0.001970  -0.001210   0.003159
   46  H  4  S    0.024016   0.063839   0.210092   0.059257   0.031052
   47  H  4  S   -0.013663   0.013461   0.083052   0.028880   0.010419
   48  F  5  S    0.016988   0.049479  -0.018294   0.040825   0.015345
   49  F  5  S   -0.038480  -0.114248   0.042049  -0.083381  -0.031750
   50  F  5  X    0.001004   0.130113  -0.071525   0.274554   0.319532
   51  F  5  Y   -0.001509   0.020449  -0.074504   0.200629  -0.162743
   52  F  5  Z   -0.000629   0.033380  -0.031234   0.176493  -0.234836
   53  F  5  S   -0.036942  -0.144227   0.060164  -0.164625  -0.061887
   54  F  5  X   -0.001491   0.078250  -0.046241   0.185271   0.221014
   55  F  5  Y    0.001077   0.015515  -0.046451   0.133654  -0.112478
   56  F  5  Z    0.000808   0.020054  -0.019950   0.114280  -0.156719
   57  F  5 XX   -0.001487   0.008162  -0.003663   0.018290   0.021407
   58  F  5 YY   -0.001212  -0.005000   0.000421   0.002958  -0.005375
   59  F  5 ZZ   -0.000912  -0.005166   0.002093   0.000840  -0.006317
   60  F  5 XY    0.000164   0.004072  -0.005131   0.013573  -0.002738
   61  F  5 XZ    0.000107   0.003989  -0.002429   0.010953  -0.006021
   62  F  5 YZ    0.000118   0.001153  -0.001613   0.005032  -0.004837
   63  H  6  S    0.006956   0.099736  -0.078122   0.086572  -0.140054
   64  H  6  S    0.001915   0.010871  -0.028339   0.044863  -0.079747
   65  H  7  S    0.063654   0.030985  -0.109121  -0.088405   0.024578
   66  H  7  S   -0.012344  -0.006509  -0.042073  -0.015445   0.027918

                     11         12         13         14         15
                   -0.6838    -0.6495    -0.6196    -0.5551    -0.5136
                     A          A          A          A          A   
    1  C  1  S   -0.007484  -0.009396  -0.021833   0.045651  -0.020574
    2  C  1  S    0.016244   0.021095   0.038792  -0.081058   0.055107
    3  C  1  X   -0.117357   0.051964   0.058201  -0.057062   0.162967
    4  C  1  Y    0.030191   0.126998   0.013901  -0.144156  -0.225930
    5  C  1  Z   -0.142250  -0.027525   0.056528  -0.132497  -0.087454
    6  C  1  S   -0.011072   0.033416   0.060588  -0.188466  -0.007387
    7  C  1  X   -0.021218   0.006523   0.054020  -0.044221  -0.029564
    8  C  1  Y    0.039967   0.077358  -0.001431  -0.032152  -0.086294
    9  C  1  Z   -0.075146  -0.035443   0.006636  -0.045805  -0.026919
   10  C  1 XX    0.017813  -0.003565  -0.011996   0.023096   0.009358
   11  C  1 YY   -0.011136  -0.004932   0.000973  -0.001798   0.004579
   12  C  1 ZZ   -0.007392   0.009032   0.009398  -0.023196  -0.013879
   13  C  1 XY    0.007156  -0.011944  -0.005126   0.001859  -0.028238
   14  C  1 XZ    0.005818   0.004006   0.015340   0.002119  -0.002448
   15  C  1 YZ    0.003536   0.002808   0.005788  -0.016734  -0.010292
   16  C  2  S   -0.002419  -0.011071   0.010230  -0.021997  -0.026399
   17  C  2  S    0.012371   0.017332  -0.025742   0.050477   0.064785
   18  C  2  X    0.209377  -0.097705   0.020812  -0.046156  -0.247507
   19  C  2  Y    0.140864  -0.196092   0.102601   0.012197   0.209361
   20  C  2  Z   -0.117367   0.023146   0.172276   0.157572  -0.044446
   21  C  2  S   -0.025606   0.091677  -0.027322   0.081921   0.182923
   22  C  2  X    0.041512   0.001593   0.014797  -0.034829  -0.077521
   23  C  2  Y    0.059503  -0.049996   0.046216   0.014134   0.180010
   24  C  2  Z   -0.047237   0.002625   0.089406   0.104480  -0.039346
   25  C  2 XX    0.012373  -0.018960   0.015023  -0.005220   0.024125
   26  C  2 YY   -0.012941   0.021441  -0.010744   0.019007  -0.029001
   27  C  2 ZZ   -0.002491   0.003191  -0.008804  -0.009855   0.001232
   28  C  2 XY    0.017011  -0.012560   0.002391   0.009923  -0.019075
   29  C  2 XZ   -0.005646   0.003304   0.015447   0.021585  -0.001474
   30  C  2 YZ   -0.007677  -0.003490   0.018767   0.004518   0.003650
   31  O  3  S    0.038334  -0.006014  -0.011964   0.006831  -0.019859
   32  O  3  S   -0.082128   0.018135   0.030560  -0.029159   0.056525
   33  O  3  X   -0.271419   0.126736   0.162573  -0.098442   0.266271
   34  O  3  Y   -0.222994   0.159738  -0.071991   0.275781  -0.204414
   35  O  3  Z    0.004305  -0.086382   0.383066   0.316260  -0.028579
   36  O  3  S   -0.188078   0.013263   0.030806   0.011090   0.026428
   37  O  3  X   -0.146683   0.075110   0.126188  -0.092242   0.226262
   38  O  3  Y   -0.135836   0.110024  -0.051330   0.211259  -0.169427
   39  O  3  Z   -0.005116  -0.057457   0.273725   0.238382  -0.031282
   40  O  3 XX    0.016604  -0.005822  -0.013980   0.004920  -0.009561
   41  O  3 YY   -0.002046   0.006961  -0.002951  -0.008685  -0.001337
   42  O  3 ZZ   -0.003695   0.002094   0.012560   0.000355   0.006690
   43  O  3 XY    0.018207  -0.012807   0.003857  -0.021597   0.013972
   44  O  3 XZ   -0.001019   0.007221  -0.026743  -0.022533   0.004192
   45  O  3 YZ   -0.000189   0.001723  -0.006767  -0.006637   0.003039
   46  H  4  S   -0.081225   0.134958  -0.067839   0.047060  -0.143073
   47  H  4  S   -0.049052   0.091433  -0.047283   0.035497  -0.109384
   48  F  5  S    0.015620  -0.007018  -0.004629   0.000631   0.002078
   49  F  5  S   -0.029607   0.014364  -0.002567   0.000021   0.010164
   50  F  5  X    0.194600  -0.221666   0.045630   0.058883  -0.184119
   51  F  5  Y    0.289198   0.365934  -0.115047   0.222103   0.220153
   52  F  5  Z   -0.201533  -0.300433  -0.370760   0.188396   0.093248
   53  F  5  S   -0.066699   0.030794   0.047556  -0.002590  -0.051082
   54  F  5  X    0.135276  -0.158338   0.041017   0.045979  -0.150001
   55  F  5  Y    0.200738   0.260035  -0.080961   0.168914   0.169681
   56  F  5  Z   -0.135585  -0.212894  -0.270807   0.146001   0.070353
   57  F  5 XX    0.012553  -0.013403  -0.001865   0.004186   0.001030
   58  F  5 YY    0.005487   0.009350  -0.007243   0.001893   0.008567
   59  F  5 ZZ   -0.003959  -0.002811  -0.010023   0.000289   0.006662
   60  F  5 XY    0.014044   0.010093  -0.003302   0.006629   0.001758
   61  F  5 XZ   -0.005676  -0.012771  -0.010887   0.005518   0.000289
   62  F  5 YZ    0.000464   0.000030  -0.004442   0.002519   0.001013
   63  H  6  S   -0.054080   0.036360   0.063406  -0.183150  -0.113805
   64  H  6  S   -0.036004   0.029597   0.053878  -0.144728  -0.124738
   65  H  7  S   -0.020743   0.064831  -0.074661   0.057457  -0.119265
   66  H  7  S   -0.044947   0.059178  -0.054480   0.034675  -0.111962

                     16         17         18         19         20
                   -0.3486     0.0938     0.2333     0.2610     0.2957
                     A          A          A          A          A   
    1  C  1  S    0.055989  -0.013638  -0.079801   0.021606   0.070000
    2  C  1  S   -0.090552  -0.000203   0.105054  -0.056020  -0.024645
    3  C  1  X   -0.102694   0.070729   0.040552   0.136416  -0.022531
    4  C  1  Y   -0.236189   0.046024   0.159954  -0.173897  -0.074286
    5  C  1  Z    0.337943  -0.056469  -0.071488   0.149971  -0.303091
    6  C  1  S   -0.337566   0.282837   0.815377  -0.077554  -1.910122
    7  C  1  X   -0.120255   0.115364   0.114270   0.262979  -0.663522
    8  C  1  Y   -0.189462   0.044890   0.368865  -0.513776  -0.358262
    9  C  1  Z    0.249436  -0.038948   0.077348   0.337842  -1.129456
   10  C  1 XX   -0.006668   0.012447   0.000517   0.012562   0.001707
   11  C  1 YY   -0.001186  -0.004735  -0.011250  -0.009953   0.011528
   12  C  1 ZZ    0.010767  -0.011972  -0.005151  -0.003602   0.005073
   13  C  1 XY   -0.015413   0.009340  -0.008076   0.012655   0.003063
   14  C  1 XZ    0.023367   0.014947   0.000731   0.002890  -0.000392
   15  C  1 YZ   -0.003984  -0.024745   0.007874  -0.003068  -0.003244
   16  C  2  S   -0.020449   0.006746   0.050651   0.078204   0.010862
   17  C  2  S    0.048986  -0.004795  -0.054147  -0.114503  -0.099968
   18  C  2  X   -0.061987   0.081057  -0.009078   0.016374  -0.018066
   19  C  2  Y    0.071269   0.060204   0.172748   0.191110   0.126688
   20  C  2  Z    0.115188   0.425855   0.044705  -0.132278   0.053485
   21  C  2  S    0.127408  -0.120571  -0.932926  -1.331499   0.260533
   22  C  2  X   -0.068295   0.185642  -0.133899   0.422161  -0.263368
   23  C  2  Y    0.065347   0.016971   0.715985   0.759051   0.929534
   24  C  2  Z    0.116046   0.642191  -0.044358  -0.373623   0.358226
   25  C  2 XX    0.002125  -0.003689  -0.005748   0.011161  -0.003143
   26  C  2 YY   -0.007322  -0.001924   0.019905   0.006677  -0.015036
   27  C  2 ZZ    0.003930   0.005836  -0.005271  -0.003072   0.003606
   28  C  2 XY    0.013312  -0.012079   0.001234  -0.007369   0.008008
   29  C  2 XZ   -0.025629  -0.010892   0.002481  -0.008450   0.010733
   30  C  2 YZ    0.006861  -0.011613  -0.008414   0.007945  -0.013640
   31  O  3  S   -0.022282   0.020803  -0.047497   0.036737  -0.004346
   32  O  3  S    0.040439  -0.031693   0.071396  -0.043429   0.036627
   33  O  3  X   -0.179759   0.041944  -0.063728   0.066628  -0.033394
   34  O  3  Y    0.122932  -0.150744   0.115553  -0.132700  -0.003771
   35  O  3  Z   -0.199130  -0.267262  -0.065096   0.066857  -0.060430
   36  O  3  S    0.169295  -0.185177   0.522236  -0.579575  -0.151605
   37  O  3  X   -0.166215   0.051890  -0.147836   0.236495   0.057829
   38  O  3  Y    0.134350  -0.203531   0.137002  -0.189801  -0.080240
   39  O  3  Z   -0.199518  -0.362250  -0.099783   0.094447  -0.126589
   40  O  3 XX    0.006458   0.001652   0.001432   0.004698   0.004217
   41  O  3 YY   -0.008564   0.006746  -0.025259   0.019981  -0.000756
   42  O  3 ZZ   -0.007035   0.008350  -0.017599   0.007703   0.013600
   43  O  3 XY   -0.006950   0.000369  -0.001058  -0.012437   0.006873
   44  O  3 XZ    0.006708   0.000464  -0.004430   0.003723   0.003722
   45  O  3 YZ    0.002354  -0.008747   0.000412   0.003811  -0.001608
   46  H  4  S   -0.027848  -0.002855   0.075804   0.005364  -0.037670
   47  H  4  S   -0.051965  -0.022049   1.410436   1.616277   0.877788
   48  F  5  S   -0.002098  -0.009062   0.005107  -0.022426   0.021117
   49  F  5  S    0.019907   0.033394  -0.027044   0.055309   0.001727
   50  F  5  X    0.052667   0.056415  -0.035865   0.084635  -0.022022
   51  F  5  Y    0.123811  -0.008241  -0.064828   0.105466  -0.008301
   52  F  5  Z   -0.181393   0.028109   0.022624  -0.028128   0.060594
   53  F  5  S   -0.023882   0.035018   0.000451   0.150952  -0.310705
   54  F  5  X    0.042767   0.051048  -0.036672   0.109548  -0.093271
   55  F  5  Y    0.115266  -0.003543  -0.084165   0.145655  -0.035665
   56  F  5  Z   -0.171179   0.034424   0.015719  -0.043816   0.118293
   57  F  5 XX    0.009983   0.005772  -0.007359   0.005426   0.012682
   58  F  5 YY    0.006024   0.006803  -0.003062  -0.001758   0.017818
   59  F  5 ZZ    0.006270   0.005734  -0.009924   0.004356   0.020425
   60  F  5 XY    0.001679   0.002148   0.004330  -0.001832  -0.004351
   61  F  5 XZ    0.002284   0.000475  -0.003531   0.003296  -0.005987
   62  F  5 YZ    0.001106  -0.003567  -0.001476   0.001158  -0.001315
   63  H  6  S    0.074499  -0.106075   0.000278   0.009456  -0.006010
   64  H  6  S    0.095477  -0.369795  -0.682189   0.016925   2.017807
   65  H  7  S   -0.107003   0.089900  -0.135886   0.133068  -0.075921
   66  H  7  S   -0.224129   0.337431  -1.232511   0.577256   0.014719

                     21         22         23         24         25
                    0.3451     0.4296     0.5240     0.7249     0.7373
                     A          A          A          A          A   
    1  C  1  S    0.021679  -0.093452   0.098370  -0.002489  -0.003813
    2  C  1  S   -0.018186   0.083332  -0.056600  -0.321725   0.126849
    3  C  1  X    0.197487  -0.189584  -0.046905  -0.221784  -0.093223
    4  C  1  Y    0.067615  -0.148168   0.177765   0.708909  -0.012297
    5  C  1  Z   -0.094525   0.039311   0.183096   0.046344  -0.146575
    6  C  1  S    0.145135   1.451965  -2.666889  -0.106069  -0.117795
    7  C  1  X    1.111504  -0.920721  -1.980324   0.321884  -0.221467
    8  C  1  Y   -0.147032  -1.052974   1.355875  -0.718808   0.170555
    9  C  1  Z   -0.186060  -0.118611   0.436473  -0.162156   0.137647
   10  C  1 XX    0.012581  -0.010784   0.008214  -0.026859   0.000395
   11  C  1 YY   -0.015647  -0.004283   0.001345  -0.045397   0.027849
   12  C  1 ZZ   -0.005681   0.025039  -0.017371   0.021630  -0.005938
   13  C  1 XY   -0.008747  -0.002697  -0.013528   0.030678  -0.018264
   14  C  1 XZ    0.009062  -0.006920   0.017156   0.004922  -0.041910
   15  C  1 YZ    0.016032  -0.004182   0.002177   0.005608   0.014022
   16  C  2  S   -0.050073   0.006611  -0.112552  -0.059947  -0.006134
   17  C  2  S    0.058630  -0.090700   0.030495  -0.568885   0.113109
   18  C  2  X    0.070613   0.185496  -0.114016   0.187565  -0.204513
   19  C  2  Y   -0.022796   0.021757   0.310926  -0.137770  -0.078744
   20  C  2  Z   -0.035922   0.013408   0.035006  -0.130269  -1.005799
   21  C  2  S    0.720817   0.575243   3.412728   0.999371   0.104773
   22  C  2  X    1.307347   1.778705  -0.670625  -0.307595   0.152767
   23  C  2  Y   -0.064055   0.608052   2.356273   0.640467   0.227000
   24  C  2  Z   -0.215161  -0.173210  -0.459421   0.149875   1.100759
   25  C  2 XX   -0.021021   0.026783  -0.009231  -0.112151   0.012145
   26  C  2 YY    0.024879  -0.020663  -0.002045  -0.106121  -0.002798
   27  C  2 ZZ    0.006471   0.004600   0.018692   0.036002   0.015210
   28  C  2 XY   -0.015552  -0.000798   0.019558   0.082080  -0.006034
   29  C  2 XZ    0.008207   0.000040  -0.009296   0.011724  -0.003886
   30  C  2 YZ    0.003693  -0.006782   0.018645   0.009742  -0.036512
   31  O  3  S    0.042232   0.064988   0.062923   0.014344   0.004617
   32  O  3  S   -0.048120   0.017715  -0.039932  -0.100272  -0.034116
   33  O  3  X    0.097778  -0.050434   0.074707   0.023304  -0.007661
   34  O  3  Y    0.183832   0.156387   0.034034  -0.010731  -0.021026
   35  O  3  Z   -0.091177   0.005301  -0.006216   0.008026  -0.040825
   36  O  3  S   -0.813795  -1.637684  -1.515967  -0.206937  -0.035041
   37  O  3  X    0.286699   0.401990   0.771422   0.219347   0.029529
   38  O  3  Y    0.602160   0.482562   0.089405  -0.010814  -0.002281
   39  O  3  Z   -0.186332  -0.176739  -0.082178  -0.071624  -0.105020
   40  O  3 XX    0.007321   0.013840   0.000573  -0.036718   0.008779
   41  O  3 YY    0.002853   0.047160   0.001789  -0.026349   0.000357
   42  O  3 ZZ    0.018853   0.060605   0.050758   0.003318  -0.039366
   43  O  3 XY   -0.022499  -0.018830   0.008421   0.007429   0.017683
   44  O  3 XZ    0.003946   0.016684  -0.001572   0.020512   0.062072
   45  O  3 YZ    0.013079  -0.003871   0.010838   0.006833   0.036576
   46  H  4  S    0.054474  -0.075075  -0.123964  -0.331423  -0.004426
   47  H  4  S   -0.571461   0.175162   1.051947   0.292989   0.056583
   48  F  5  S   -0.056362   0.077173  -0.003143  -0.004922   0.005380
   49  F  5  S    0.054812   0.004664   0.074937  -0.007861   0.027641
   50  F  5  X    0.138701  -0.164245   0.152338   0.002278  -0.007413
   51  F  5  Y    0.018091  -0.083708  -0.084164   0.099349  -0.066943
   52  F  5  Z    0.077250  -0.050782  -0.013892   0.043719  -0.064174
   53  F  5  S    0.669203  -1.163475  -0.197433   0.047594  -0.092679
   54  F  5  X    0.288886  -0.476244   0.195696  -0.013943  -0.001256
   55  F  5  Y    0.140606  -0.146307  -0.212528   0.110668  -0.038727
   56  F  5  Z    0.127892  -0.128216  -0.072039   0.030286  -0.018115
   57  F  5 XX   -0.012904   0.053363   0.015305  -0.034209   0.030357
   58  F  5 YY   -0.025867   0.059057   0.034666   0.010180   0.021474
   59  F  5 ZZ   -0.026254   0.071703   0.022503  -0.001624   0.009848
   60  F  5 XY    0.014111   0.002151  -0.010274   0.010784   0.019318
   61  F  5 XZ   -0.002036  -0.003087  -0.000882  -0.009942   0.015552
   62  F  5 YZ    0.004618   0.000889   0.005378   0.000953  -0.005149
   63  H  6  S    0.027050   0.032364  -0.043539   0.123524  -0.087157
   64  H  6  S    0.544394  -0.255022  -0.553431  -0.113299  -0.254335
   65  H  7  S   -0.043521  -0.042793  -0.149135   0.049292  -0.012109
   66  H  7  S   -1.047144   0.272375   0.537980  -0.226829   0.183545

                     26         27         28         29         30
                    0.8040     0.8266     0.8534     0.9063     0.9379
                     A          A          A          A          A   
    1  C  1  S   -0.006045   0.019229  -0.022210  -0.003959  -0.036312
    2  C  1  S    0.095399  -0.608851   0.017284   0.146721  -0.261917
    3  C  1  X    0.512407   0.669832   0.135500  -0.327390  -0.074366
    4  C  1  Y    0.090623   0.081421   0.288399  -0.148885  -0.560874
    5  C  1  Z    0.013900   0.259549  -0.842000  -0.001093   0.046562
    6  C  1  S   -0.454329   1.242487   0.811428  -1.888685   0.618406
    7  C  1  X   -0.647664  -1.045375  -0.315320  -0.841651   0.672826
    8  C  1  Y   -0.304561  -0.343636  -0.243998   0.533036   1.415251
    9  C  1  Z   -0.051790  -0.361167   1.658974   0.081078   0.343463
   10  C  1 XX    0.039119   0.103091   0.086317   0.013235  -0.070006
   11  C  1 YY   -0.053107  -0.056761   0.013466  -0.058770  -0.004321
   12  C  1 ZZ    0.041253  -0.052958  -0.042792   0.039130  -0.058004
   13  C  1 XY    0.060124   0.086762   0.002652   0.056631   0.049668
   14  C  1 XZ    0.022436  -0.004049  -0.013944  -0.054608   0.007317
   15  C  1 YZ    0.014718  -0.014777  -0.031224  -0.013064  -0.059517
   16  C  2  S    0.001856   0.018495  -0.002448  -0.036098  -0.044458
   17  C  2  S    0.400007  -0.245131   0.073516   0.228617  -0.670490
   18  C  2  X    0.782452  -0.232050  -0.006585   0.362361   0.482564
   19  C  2  Y    0.105543  -0.197775   0.142390  -0.486817   0.177343
   20  C  2  Z   -0.205478  -0.097662   0.180268   0.050514  -0.115506
   21  C  2  S   -0.396168   0.081096  -0.264467   0.680036   1.572257
   22  C  2  X   -0.725943   0.507250   0.177909  -1.028665  -0.729183
   23  C  2  Y    0.087131   0.065748  -0.619941   3.061919  -1.104423
   24  C  2  Z    0.254493   0.229646  -0.598077  -0.341702   0.027488
   25  C  2 XX   -0.025529  -0.031426  -0.013016  -0.013044  -0.062652
   26  C  2 YY    0.064360   0.046490   0.027927   0.070775  -0.131789
   27  C  2 ZZ    0.013909  -0.034467  -0.005073   0.029003   0.005775
   28  C  2 XY   -0.105870  -0.047410  -0.016917  -0.048474  -0.099955
   29  C  2 XZ    0.021247  -0.008150   0.001905   0.022793  -0.005629
   30  C  2 YZ    0.010124  -0.014495   0.004766  -0.015519   0.074374
   31  O  3  S    0.020743  -0.016055   0.000299   0.025948   0.009748
   32  O  3  S   -0.056207   0.009066  -0.174126  -0.123585  -0.122636
   33  O  3  X    0.125498   0.076512   0.046606   0.331586   0.179512
   34  O  3  Y    0.092726   0.008347  -0.023915  -0.172354   0.192229
   35  O  3  Z   -0.024047   0.029618   0.006800   0.002300  -0.135470
   36  O  3  S    0.100204   0.173775   0.376197  -0.334435   0.527450
   37  O  3  X    0.167732  -0.384702  -0.138383   0.247649  -0.158252
   38  O  3  Y    0.076180  -0.069597   0.056773  -0.076143   0.073426
   39  O  3  Z   -0.051235   0.009017   0.101459  -0.073395   0.105609
   40  O  3 XX    0.034123   0.031142  -0.037130   0.009623   0.024962
   41  O  3 YY    0.013598   0.019695  -0.031412   0.010405   0.031218
   42  O  3 ZZ   -0.030856  -0.029589  -0.074724  -0.032086  -0.040459
   43  O  3 XY    0.138562  -0.065775  -0.019030  -0.014844   0.035611
   44  O  3 XZ   -0.036482   0.033251  -0.036736   0.008948  -0.028504
   45  O  3 YZ   -0.023523  -0.011607   0.002841  -0.023825   0.007153
   46  H  4  S    0.161841   0.037418  -0.093725   0.295608  -0.403233
   47  H  4  S    0.033535  -0.190995  -0.285604   1.639570  -0.680712
   48  F  5  S    0.002602   0.011051   0.007779   0.012802  -0.014513
   49  F  5  S    0.026857   0.042885  -0.094199  -0.127295  -0.168421
   50  F  5  X    0.099353   0.272274   0.029888  -0.046916  -0.106336
   51  F  5  Y    0.097424   0.055066  -0.000725  -0.097087   0.032628
   52  F  5  Z    0.022400   0.014694  -0.155176  -0.057531  -0.026229
   53  F  5  S   -0.254555  -0.694201  -0.017769   0.086526   0.669277
   54  F  5  X   -0.051105  -0.194530  -0.078128  -0.069491   0.140883
   55  F  5  Y    0.014707  -0.083821  -0.027485  -0.049498  -0.073938
   56  F  5  Z   -0.013189  -0.021940  -0.178310  -0.024442   0.008834
   57  F  5 XX   -0.041356  -0.123642  -0.056590  -0.012089  -0.018075
   58  F  5 YY    0.005430   0.025580  -0.016547  -0.052852  -0.086278
   59  F  5 ZZ    0.027704   0.061350  -0.047037  -0.040745  -0.100077
   60  F  5 XY   -0.041804  -0.081556   0.006366   0.024040  -0.036215
   61  F  5 XZ   -0.022892  -0.030529  -0.032811   0.018142   0.030894
   62  F  5 YZ   -0.016165  -0.015974  -0.007635   0.016710  -0.009419
   63  H  6  S    0.058989  -0.076488  -0.345966  -0.028935  -0.354663
   64  H  6  S   -0.006372   0.020090  -0.477746   0.010864  -0.406807
   65  H  7  S   -0.368165   0.451167   0.201231   0.543215   0.193160
   66  H  7  S    0.802854  -0.557269   0.175102  -0.844958  -0.879712

                     31         32         33         34         35
                    1.0084     1.0827     1.1160     1.1667     1.2113
                     A          A          A          A          A   
    1  C  1  S   -0.032155  -0.023860  -0.022531   0.025130  -0.000415
    2  C  1  S    0.263697   0.187251   0.500298  -0.111563  -0.563669
    3  C  1  X    0.346670  -0.124821  -0.072027  -0.002310  -0.128885
    4  C  1  Y   -0.210877   0.104962   0.341568  -0.181504  -0.046852
    5  C  1  Z   -0.168716   0.224916   0.363750  -0.379380  -0.208454
    6  C  1  S   -2.039684  -0.678296  -0.746393  -0.594748   1.474876
    7  C  1  X   -1.179012   0.049701   0.107888  -0.788089   0.179560
    8  C  1  Y    0.982404   0.066094  -0.799750   0.526489  -0.216604
    9  C  1  Z    0.720640  -0.207762  -0.466063   0.688119   0.553427
   10  C  1 XX   -0.151213   0.075231   0.079134  -0.060723  -0.010646
   11  C  1 YY    0.040620  -0.047796   0.022999  -0.076060  -0.055400
   12  C  1 ZZ    0.040846  -0.010758  -0.029532   0.097490   0.002106
   13  C  1 XY    0.072711   0.025118  -0.025492  -0.002304  -0.000562
   14  C  1 XZ    0.074326  -0.002112   0.023438  -0.021066   0.040411
   15  C  1 YZ   -0.016856  -0.064433  -0.108281   0.092895   0.068532
   16  C  2  S    0.024504   0.032860  -0.013378  -0.031904  -0.009607
   17  C  2  S   -0.713928  -0.876214   0.162983  -0.807961   0.058159
   18  C  2  X    0.077166   0.051870  -0.175319  -0.075301  -0.115947
   19  C  2  Y   -0.796745   0.441000  -0.202206   0.108297   0.046272
   20  C  2  Z    0.086586  -0.078419   0.044506  -0.037951   0.070989
   21  C  2  S    2.286175   2.013177  -1.104126   2.204456  -0.684036
   22  C  2  X   -0.738850  -0.109569   0.335524  -0.178925   0.386881
   23  C  2  Y    2.737554  -0.356482   0.027369   0.562930  -0.202298
   24  C  2  Z   -0.504050  -0.006775  -0.041244   0.109910  -0.468451
   25  C  2 XX    0.108014  -0.128832  -0.080778  -0.143306  -0.071199
   26  C  2 YY   -0.039722   0.135832  -0.043451  -0.041616  -0.008499
   27  C  2 ZZ   -0.055544  -0.111252   0.057741   0.009170   0.042341
   28  C  2 XY    0.055197   0.062245  -0.099326  -0.061790  -0.022274
   29  C  2 XZ   -0.069696  -0.054788  -0.023934   0.102086   0.002320
   30  C  2 YZ    0.029495  -0.015039   0.097022  -0.018638   0.006804
   31  O  3  S   -0.017008  -0.006793   0.001443   0.016307   0.008475
   32  O  3  S    0.130298  -0.126801   0.480534   0.471324   0.193804
   33  O  3  X   -0.371872  -0.141549   0.377521   0.408269   0.124695
   34  O  3  Y   -0.094217  -0.210202   0.154471   0.092029  -0.145011
   35  O  3  Z   -0.036334  -0.027701  -0.068037   0.327594  -0.819349
   36  O  3  S   -0.958625   0.013574  -0.787482  -1.391442  -0.480454
   37  O  3  X    0.517807   0.305813  -0.705119  -0.454356  -0.170177
   38  O  3  Y   -0.048790   0.238122  -0.311058  -0.250862   0.098504
   39  O  3  Z    0.058197   0.020898   0.177274  -0.403280   1.051429
   40  O  3 XX   -0.173378  -0.007361   0.145114   0.156971   0.086639
   41  O  3 YY    0.001554  -0.151124   0.182670   0.116739   0.062540
   42  O  3 ZZ    0.110426  -0.025173   0.192427   0.255580   0.078089
   43  O  3 XY   -0.008929  -0.051771   0.076129   0.031106   0.027295
   44  O  3 XZ    0.025398  -0.000158  -0.015815  -0.004372   0.000899
   45  O  3 YZ    0.066802   0.055762   0.019779   0.001652   0.043300
   46  H  4  S   -0.055603   0.831590  -0.105037   0.339792   0.167325
   47  H  4  S    1.295224  -1.410530   0.347529  -0.426898  -0.074345
   48  F  5  S   -0.009666  -0.002341   0.003664   0.011103  -0.012312
   49  F  5  S    0.001617  -0.189151  -0.037060   0.144580  -0.302537
   50  F  5  X    0.008663  -0.024662   0.017373   0.013593   0.057108
   51  F  5  Y   -0.019140  -0.019539  -0.027644  -0.049559   0.068517
   52  F  5  Z   -0.013039  -0.029418  -0.069893  -0.037674   0.030460
   53  F  5  S    0.123887   0.377597   0.022532  -0.353812   0.450262
   54  F  5  X    0.182384  -0.028096  -0.064893   0.025626  -0.126133
   55  F  5  Y   -0.027406   0.000717   0.050594  -0.004533  -0.056412
   56  F  5  Z   -0.041369   0.010920   0.046631  -0.025196  -0.079158
   57  F  5 XX    0.042078  -0.082604  -0.046640   0.112857  -0.157290
   58  F  5 YY   -0.025902  -0.077076  -0.002866   0.062895  -0.146809
   59  F  5 ZZ   -0.026557  -0.070136   0.013362   0.054933  -0.131578
   60  F  5 XY   -0.026844   0.005989   0.043343  -0.003593  -0.011533
   61  F  5 XZ   -0.013329   0.026792   0.041159  -0.022638  -0.036992
   62  F  5 YZ   -0.012675   0.014231   0.022654  -0.008719  -0.008176
   63  H  6  S   -0.142644  -0.431769  -0.677394   0.500290   0.258894
   64  H  6  S   -0.561387   0.521434   1.202756  -1.072875  -0.805867
   65  H  7  S   -0.439504  -0.056817  -0.353374  -0.273583  -0.208960
   66  H  7  S    0.270893  -0.148564   0.686488   0.636521   0.389897

                     36         37         38         39         40
                    1.2535     1.4057     1.4161     1.5862     1.6204
                     A          A          A          A          A   
    1  C  1  S   -0.066991  -0.002534  -0.057856  -0.008981  -0.003919
    2  C  1  S   -1.360774  -0.229873  -0.914668  -0.221305  -0.124816
    3  C  1  X   -0.327398  -0.166741   0.047707  -0.060778   0.026700
    4  C  1  Y   -0.070896  -0.111814   0.048397  -0.047889   0.016730
    5  C  1  Z   -0.130428  -0.040671  -0.000302   0.113637   0.002312
    6  C  1  S    3.829743   1.446507   3.091554   0.792567   0.305144
    7  C  1  X    1.233143   0.931643   0.530293   0.454186  -0.181975
    8  C  1  Y   -0.564322  -0.022490  -0.644843   0.179118   0.218052
    9  C  1  Z    0.561935   0.058677   0.118918  -0.292191   0.119047
   10  C  1 XX   -0.081227   0.086146  -0.190230  -0.017032  -0.015123
   11  C  1 YY   -0.092343   0.029563  -0.043596   0.154049   0.061878
   12  C  1 ZZ   -0.053982  -0.054758   0.044558  -0.120726  -0.105326
   13  C  1 XY    0.023377   0.057743  -0.090429   0.102429  -0.102377
   14  C  1 XZ    0.053166   0.198494  -0.008256  -0.212386   0.034259
   15  C  1 YZ   -0.120167  -0.006968  -0.152075   0.096281   0.039212
   16  C  2  S    0.016807   0.013593   0.027737   0.006447  -0.005975
   17  C  2  S    0.614230   0.112188   0.211230   0.042937   0.077007
   18  C  2  X   -0.028212  -0.082157   0.009989  -0.038103  -0.146727
   19  C  2  Y   -0.154629   0.048088   0.075551  -0.025035  -0.102850
   20  C  2  Z   -0.023511  -0.063187   0.003956   0.035740  -0.054676
   21  C  2  S   -2.981959  -0.299820  -0.776088   0.222203  -1.228573
   22  C  2  X    0.677928   0.924713   1.432433   0.644056  -0.351748
   23  C  2  Y    0.093210  -0.874732  -0.580417  -0.056194  -0.081272
   24  C  2  Z   -0.159532   0.063208  -0.202848  -0.008411   0.208985
   25  C  2 XX   -0.093887   0.096873   0.094637   0.110849   0.031384
   26  C  2 YY    0.113304  -0.065201  -0.079981  -0.087463   0.022787
   27  C  2 ZZ    0.045976  -0.010100   0.027251  -0.001987  -0.076079
   28  C  2 XY    0.082986   0.063667   0.068282   0.090388  -0.094254
   29  C  2 XZ   -0.067926  -0.108711  -0.123710   0.211657   0.090098
   30  C  2 YZ    0.050494   0.148022   0.038845  -0.186436   0.148086
   31  O  3  S    0.003886   0.003905   0.022493   0.007935  -0.051476
   32  O  3  S    0.062744   0.112851   0.315125   0.192925  -0.808995
   33  O  3  X   -0.138875   0.123414   0.115291  -0.000741   0.195168
   34  O  3  Y    0.402809  -0.465643  -0.516137  -0.234294   0.005603
   35  O  3  Z    0.188909   0.268116   0.074333   0.058512   0.024157
   36  O  3  S   -0.032818  -0.266181  -0.986862  -0.619362   2.269329
   37  O  3  X    0.294129  -0.177319   0.017226   0.126323  -0.835778
   38  O  3  Y   -0.598710   1.017259   1.177252   0.625560  -0.256378
   39  O  3  Z   -0.224224  -0.461873  -0.196882  -0.247365  -0.023154
   40  O  3 XX    0.100500  -0.056463   0.041580   0.029931  -0.371228
   41  O  3 YY   -0.064135   0.085499   0.142727  -0.048026  -0.215719
   42  O  3 ZZ    0.000294   0.025979   0.066805   0.124017  -0.067645
   43  O  3 XY    0.000249   0.044117   0.065412   0.050530  -0.021123
   44  O  3 XZ   -0.058211  -0.062874  -0.004075  -0.014181  -0.096688
   45  O  3 YZ    0.077792   0.059641   0.034989  -0.088047   0.044180
   46  H  4  S    0.218930  -0.134620   0.039151  -0.049733   0.166755
   47  H  4  S    0.511289  -0.354943  -0.200452  -0.039955   0.139204
   48  F  5  S   -0.000155  -0.059216   0.055528  -0.014730   0.003897
   49  F  5  S   -0.175093  -0.930887   0.833190  -0.142187   0.016646
   50  F  5  X    0.059287   0.345411  -0.332220   0.098852  -0.463314
   51  F  5  Y    0.064559   0.120409  -0.223629   0.476824   0.493866
   52  F  5  Z   -0.054462   0.310389  -0.090347  -0.561878   0.254696
   53  F  5  S    0.135873   1.995279  -1.950584   0.383348  -0.111488
   54  F  5  X   -0.210842  -0.436116   0.328255  -0.095460   0.581400
   55  F  5  Y   -0.015211  -0.143803   0.274844  -0.541753  -0.627735
   56  F  5  Z   -0.018305  -0.299023   0.083806   0.666802  -0.315975
   57  F  5 XX   -0.108988  -0.438881   0.343805  -0.056535  -0.088426
   58  F  5 YY   -0.088467  -0.451218   0.402668  -0.114068   0.123728
   59  F  5 ZZ   -0.017188  -0.471511   0.478430  -0.054437   0.019752
   60  F  5 XY    0.010350   0.018177   0.005106  -0.038371   0.024828
   61  F  5 XZ   -0.000034  -0.035153  -0.019448   0.053276   0.008302
   62  F  5 YZ   -0.039557  -0.035441  -0.035091   0.036827   0.009624
   63  H  6  S   -0.229452  -0.013107  -0.183646  -0.111322  -0.030241
   64  H  6  S   -0.737750  -0.153377  -0.284674   0.036506  -0.142657
   65  H  7  S   -0.279612  -0.097066  -0.045430  -0.102732  -0.185979
   66  H  7  S   -0.017479  -0.655838  -0.632378  -0.582078  -0.161388

                     41         42         43         44         45
                    1.7091     1.7316     1.8009     1.8858     1.9860
                     A          A          A          A          A   
    1  C  1  S    0.021284   0.014245  -0.007397  -0.002623  -0.013950
    2  C  1  S    0.202824   0.189870  -0.312535  -0.046288  -0.011323
    3  C  1  X    0.003240  -0.012122  -0.104920   0.032377  -0.019117
    4  C  1  Y   -0.083731   0.022713   0.057337  -0.238850  -0.010493
    5  C  1  Z   -0.024708   0.119298   0.095532  -0.032499   0.101026
    6  C  1  S   -0.512766  -0.622297   1.845679   1.236631  -0.129159
    7  C  1  X   -0.272005   0.005084   1.316727   0.443486   0.608912
    8  C  1  Y    0.230778  -0.072473  -0.546363  -0.074053   0.090395
    9  C  1  Z   -0.266833  -0.670518  -0.467924  -0.358193  -0.151319
   10  C  1 XX    0.058831  -0.032901  -0.063408   0.347521   0.110264
   11  C  1 YY   -0.139602  -0.086649   0.186468  -0.523630  -0.095433
   12  C  1 ZZ    0.114070   0.110366  -0.112973   0.205134  -0.091724
   13  C  1 XY   -0.075674  -0.112011   0.085758  -0.006330  -0.093109
   14  C  1 XZ    0.095554   0.375372  -0.073490  -0.252018  -0.136074
   15  C  1 YZ   -0.151018   0.023286   0.005852  -0.210995   0.356729
   16  C  2  S   -0.002405  -0.002696  -0.002313   0.008419  -0.007030
   17  C  2  S   -0.058030  -0.006696   0.227036  -0.030474  -0.078370
   18  C  2  X   -0.013398  -0.017353  -0.154629  -0.075797   0.034745
   19  C  2  Y    0.008270   0.044332   0.072124  -0.134761  -0.136882
   20  C  2  Z    0.156469  -0.129231   0.093140  -0.004458   0.070591
   21  C  2  S    0.093497  -0.230013  -3.531144  -1.285768   0.018291
   22  C  2  X   -0.346750  -0.330295  -0.349464  -0.199445   0.047573
   23  C  2  Y   -0.067127  -0.176851  -1.953326  -1.572741  -0.349631
   24  C  2  Z    0.026156   0.311905   0.377100   0.329618   0.160660
   25  C  2 XX   -0.135583   0.023195   0.020746  -0.162739  -0.073053
   26  C  2 YY   -0.077590   0.075779  -0.105346   0.227715   0.147430
   27  C  2 ZZ    0.211268  -0.108131   0.052121  -0.048602  -0.116161
   28  C  2 XY   -0.162887  -0.012304  -0.111761   0.019776  -0.076617
   29  C  2 XZ   -0.424751  -0.013338   0.004785   0.091745  -0.076402
   30  C  2 YZ   -0.255742   0.388980  -0.105168   0.099683  -0.166640
   31  O  3  S   -0.017633  -0.011126  -0.087176  -0.049071  -0.005732
   32  O  3  S   -0.248529  -0.260309  -1.345026  -0.498025   0.043492
   33  O  3  X    0.031061   0.019243   0.255132  -0.001060  -0.000595
   34  O  3  Y    0.001691   0.035629   0.008485  -0.148458  -0.063754
   35  O  3  Z    0.101705  -0.043408   0.008610  -0.041622   0.085535
   36  O  3  S    0.758794   0.803088   4.313093   2.051215   0.033655
   37  O  3  X   -0.206971  -0.198619  -1.391175  -0.641343  -0.049088
   38  O  3  Y   -0.045105  -0.178917  -0.264263   0.074793   0.105892
   39  O  3  Z    0.140946  -0.000459   0.176254   0.097063  -0.128215
   40  O  3 XX   -0.022625  -0.144748  -0.555568  -0.202459   0.085060
   41  O  3 YY   -0.004033   0.023230  -0.331126  -0.166376   0.233094
   42  O  3 ZZ   -0.168106  -0.044383  -0.143757  -0.043834  -0.319615
   43  O  3 XY    0.098381  -0.076238   0.096670  -0.040898  -0.106565
   44  O  3 XZ    0.376128  -0.161735   0.062562  -0.211207  -0.281770
   45  O  3 YZ    0.208035  -0.030099   0.145807   0.073422   0.498813
   46  H  4  S   -0.005063   0.054154   0.089842  -0.428398  -0.298811
   47  H  4  S   -0.033245  -0.100791  -0.458066  -0.483642  -0.102520
   48  F  5  S    0.014563  -0.000004  -0.008012   0.027781  -0.037117
   49  F  5  S    0.187232  -0.010927  -0.088967   0.417319  -0.636575
   50  F  5  X    0.045704   0.039949   0.180189   0.186861  -0.194186
   51  F  5  Y    0.304366  -0.026636  -0.351616  -0.027905  -0.130522
   52  F  5  Z   -0.143812  -0.500342  -0.142669  -0.061199  -0.122086
   53  F  5  S   -0.422629   0.029097   0.271186  -0.929128   1.482578
   54  F  5  X   -0.082597  -0.079182  -0.300138  -0.401649   0.374114
   55  F  5  Y   -0.450438   0.009890   0.590464  -0.056615   0.226912
   56  F  5  Z    0.223002   0.785924   0.241387   0.043973   0.220035
   57  F  5 XX    0.060805   0.059457   0.081386   0.019588  -0.321278
   58  F  5 YY    0.156110   0.069470  -0.166147   0.141751  -0.162867
   59  F  5 ZZ    0.032846  -0.141618  -0.036555   0.313411  -0.231258
   60  F  5 XY    0.160426   0.096595  -0.203464   0.292156  -0.126088
   61  F  5 XZ   -0.071927  -0.315060   0.058156   0.203525  -0.171697
   62  F  5 YZ   -0.038239  -0.140504  -0.105693   0.050682   0.261269
   63  H  6  S    0.176986   0.131189   0.003080   0.161585  -0.071258
   64  H  6  S    0.111282   0.392111   0.293768   0.027293   0.077262
   65  H  7  S   -0.010761   0.102857  -0.364470  -0.249691  -0.178843
   66  H  7  S   -0.066524  -0.071109  -0.462703  -0.168254  -0.036133

                     46         47         48         49         50
                    2.0104     2.0847     2.1236     2.1814     2.1929
                     A          A          A          A          A   
    1  C  1  S   -0.028337   0.046976   0.006304   0.035445   0.015230
    2  C  1  S   -0.648131   0.205279   0.092307   0.572240   0.147430
    3  C  1  X   -0.228531  -0.049899  -0.005463   0.068672   0.055005
    4  C  1  Y    0.048468   0.180388  -0.026168  -0.054439  -0.087283
    5  C  1  Z    0.009526  -0.092186  -0.016303   0.002735  -0.082408
    6  C  1  S    1.117210  -1.767738  -0.492883  -2.283007  -0.187953
    7  C  1  X    0.958140  -1.340856   0.297157   0.658888   0.724407
    8  C  1  Y    0.008606  -0.010934  -0.122307   0.745009  -0.081308
    9  C  1  Z    0.358599  -0.411560  -0.209748  -0.003843  -0.360565
   10  C  1 XX    0.032140  -0.138619   0.087024  -0.202132   0.035078
   11  C  1 YY   -0.099346   0.230951   0.076321  -0.005450  -0.008133
   12  C  1 ZZ   -0.025460  -0.033785  -0.188374   0.235917   0.039132
   13  C  1 XY   -0.350553   0.045006  -0.084470  -0.101379  -0.063137
   14  C  1 XZ   -0.032325  -0.183781  -0.001470  -0.167257  -0.141258
   15  C  1 YZ    0.053205  -0.173131  -0.178691  -0.105982  -0.215790
   16  C  2  S    0.005842  -0.013589  -0.010863   0.011930   0.009007
   17  C  2  S   -0.277096  -0.168877  -0.079562  -0.063991   0.175453
   18  C  2  X    0.148212   0.032530   0.062694  -0.011434  -0.022751
   19  C  2  Y   -0.038985   0.155723  -0.144384   0.162340   0.032176
   20  C  2  Z    0.003547  -0.039857   0.023950  -0.004156  -0.037994
   21  C  2  S   -0.454645   1.806276   0.319483   0.736158  -0.626865
   22  C  2  X   -0.279064  -0.304362   0.212950  -0.624096   0.146765
   23  C  2  Y    0.198964   1.812030   0.062939   0.095354  -0.647740
   24  C  2  Z   -0.196805   0.013989  -0.032237  -0.000239   0.230316
   25  C  2 XX    0.339199   0.184427  -0.033311   0.067250  -0.066944
   26  C  2 YY   -0.268810  -0.162268   0.133609  -0.303553  -0.026690
   27  C  2 ZZ   -0.136384  -0.012540  -0.170208   0.319035   0.047301
   28  C  2 XY   -0.226883  -0.039989  -0.007401   0.014174   0.092634
   29  C  2 XZ    0.143843  -0.203445   0.000119   0.087204  -0.198945
   30  C  2 YZ   -0.181480   0.289761  -0.081777   0.057440   0.299419
   31  O  3  S   -0.004442   0.031692   0.002201   0.007927  -0.002790
   32  O  3  S   -0.049573   0.312713   0.136000   0.126711  -0.012973
   33  O  3  X   -0.116117  -0.062216   0.025284  -0.139004  -0.021318
   34  O  3  Y    0.078895   0.149468  -0.060130   0.089591   0.028204
   35  O  3  Z    0.008786  -0.058253   0.002228   0.008855   0.004263
   36  O  3  S    0.208823  -1.449672  -0.444733  -0.167715   0.277677
   37  O  3  X    0.145514   0.557696   0.053452   0.305814  -0.035361
   38  O  3  Y   -0.117087  -0.196520   0.163576  -0.223332  -0.028144
   39  O  3  Z   -0.007163  -0.010379  -0.034174  -0.000684  -0.016612
   40  O  3 XX   -0.272231  -0.122435   0.168649  -0.122759  -0.041679
   41  O  3 YY    0.313432   0.484661  -0.081291   0.083351  -0.331611
   42  O  3 ZZ   -0.072927  -0.112932  -0.045739   0.139978   0.348819
   43  O  3 XY    0.045777   0.009448  -0.049963   0.109095   0.218002
   44  O  3 XZ    0.081257  -0.272714  -0.033079  -0.068423   0.123677
   45  O  3 YZ   -0.276302   0.311191   0.024810   0.146913  -0.056495
   46  H  4  S    0.318497   0.455102  -0.202814   0.230178  -0.018205
   47  H  4  S    0.059013   0.476529   0.037183  -0.110337  -0.240435
   48  F  5  S   -0.024266   0.029828  -0.021629  -0.084066  -0.031340
   49  F  5  S   -0.133772   0.670217  -0.391610  -1.162816  -0.538384
   50  F  5  X    0.200540   0.221130  -0.078237  -0.095818  -0.043030
   51  F  5  Y   -0.110386   0.189346  -0.085664  -0.057163  -0.067793
   52  F  5  Z    0.020758  -0.019062  -0.089032  -0.077674  -0.115113
   53  F  5  S    0.568969  -1.504066   0.907732   3.069659   1.318615
   54  F  5  X   -0.124426  -0.326207   0.193068   0.661652   0.226418
   55  F  5  Y    0.202804  -0.292494   0.165256   0.244751   0.186908
   56  F  5  Z   -0.011515   0.013415   0.161618   0.237538   0.241861
   57  F  5 XX   -0.273421   0.357032  -0.315919  -0.872234  -0.322856
   58  F  5 YY    0.241500   0.204566   0.482019  -0.476770   0.127275
   59  F  5 ZZ   -0.178227   0.132118  -0.578986   0.090717  -0.342727
   60  F  5 XY    0.196921  -0.095402  -0.147014   0.082350  -0.287680
   61  F  5 XZ   -0.015546   0.303767   0.363964   0.002385  -0.034488
   62  F  5 YZ    0.205738   0.072052  -0.471862  -0.312029   0.591817
   63  H  6  S   -0.184832   0.349565   0.291627   0.092874   0.293340
   64  H  6  S   -0.346177   0.163453   0.153319   0.229398   0.211247
   65  H  7  S   -0.163077   0.270983  -0.108028   0.271229   0.190709
   66  H  7  S   -0.306826   0.205934   0.024828  -0.098537  -0.143145

                     51         52         53         54         55
                    2.2980     2.3522     2.4393     2.5131     2.6061
                     A          A          A          A          A   
    1  C  1  S   -0.023781   0.002082  -0.039278  -0.030172   0.016789
    2  C  1  S   -0.095871  -0.076969  -0.356391  -0.322500   0.044162
    3  C  1  X    0.171853  -0.006700   0.116789  -0.070626  -0.295597
    4  C  1  Y   -0.063389   0.032770   0.021790   0.057295   0.124839
    5  C  1  Z    0.127022  -0.034972   0.018132  -0.024099   0.034375
    6  C  1  S    1.594799  -0.266450   1.206165   1.679980  -0.802610
    7  C  1  X    0.116569  -0.311445  -0.018329   0.666421  -0.204697
    8  C  1  Y   -0.509351  -0.289416  -0.357424  -0.543365   0.686186
    9  C  1  Z    0.336181  -0.154049  -0.098476  -0.174198   0.374609
   10  C  1 XX   -0.169643   0.128282   0.451482   0.024017  -0.117171
   11  C  1 YY    0.005668   0.283473  -0.328596   0.120357  -0.370050
   12  C  1 ZZ    0.252503  -0.460885  -0.222238  -0.213863   0.518236
   13  C  1 XY   -0.114621  -0.122277   0.307698  -0.429571  -0.179963
   14  C  1 XZ    0.023108   0.027763   0.073356  -0.042554  -0.427380
   15  C  1 YZ    0.014559   0.072047   0.464155   0.239818   0.264883
   16  C  2  S    0.039788  -0.035169   0.030146   0.072172  -0.050237
   17  C  2  S    0.331286  -0.270149   0.216229   0.135227  -0.079588
   18  C  2  X    0.058516   0.265270  -0.178309   0.223568  -0.155928
   19  C  2  Y    0.045171  -0.099915   0.097789  -0.138085   0.010150
   20  C  2  Z   -0.016796  -0.001344   0.063608   0.030531   0.047786
   21  C  2  S   -1.416135   1.080360  -0.909898  -1.450218   1.338611
   22  C  2  X    0.509781   0.169366   0.232961   0.223345  -0.314856
   23  C  2  Y   -0.811025   0.551623  -0.148232  -0.953726   0.589496
   24  C  2  Z   -0.139887  -0.021267   0.109345   0.206413  -0.103665
   25  C  2 XX   -0.024436   0.354313  -0.123333  -0.299148   0.056832
   26  C  2 YY   -0.261212   0.049620  -0.102010   0.033758   0.248661
   27  C  2 ZZ    0.318208  -0.573431   0.250452   0.390833  -0.495069
   28  C  2 XY    0.125301   0.091145   0.066937  -0.577139  -0.134285
   29  C  2 XZ    0.314507  -0.212891   0.038204   0.119667  -0.252774
   30  C  2 YZ   -0.247121  -0.036185   0.206698   0.367383   0.064888
   31  O  3  S    0.004270   0.018263  -0.006089  -0.001405   0.003149
   32  O  3  S    0.061811   0.176508   0.223661   0.338697   0.153842
   33  O  3  X   -0.032217   0.139488  -0.201641  -0.369923  -0.020508
   34  O  3  Y    0.006888   0.168239   0.060427  -0.280170   0.063570
   35  O  3  Z   -0.041793  -0.064295   0.039117   0.108117  -0.007073
   36  O  3  S    0.115784  -1.016820  -0.115727   0.106770  -0.542640
   37  O  3  X   -0.041718   0.265427   0.238755   0.064428   0.265211
   38  O  3  Y   -0.009668  -0.009308  -0.249942   0.258133  -0.129447
   39  O  3  Z    0.117522  -0.022108  -0.058204  -0.090941  -0.011203
   40  O  3 XX    0.021120   0.131503  -0.302622   0.241517  -0.131191
   41  O  3 YY   -0.296956  -0.427964   0.207479  -0.228830  -0.016760
   42  O  3 ZZ    0.327957   0.314170   0.145827   0.279429   0.157355
   43  O  3 XY    0.124287   0.269019   0.428201  -0.172497   0.317185
   44  O  3 XZ   -0.251686  -0.018716   0.142926   0.142242   0.028261
   45  O  3 YZ    0.424732   0.254369   0.064553   0.119818  -0.096220
   46  H  4  S    0.109420  -0.081275   0.211726  -0.107779  -0.181577
   47  H  4  S   -0.230901   0.064465  -0.024718  -0.228188   0.162698
   48  F  5  S    0.013932   0.007045   0.033934   0.006157  -0.016077
   49  F  5  S    0.482942   0.184324   0.020143   0.242904   0.043266
   50  F  5  X    0.187919   0.037319  -0.255878   0.134362   0.094185
   51  F  5  Y    0.026032  -0.077723  -0.111000   0.003752   0.161904
   52  F  5  Z    0.171439  -0.020407  -0.071717  -0.020892   0.113887
   53  F  5  S   -1.028234  -0.464136  -0.547752  -0.495180   0.209302
   54  F  5  X   -0.299772  -0.141042   0.004497  -0.233276   0.080540
   55  F  5  Y   -0.006475   0.102810   0.049966   0.040422  -0.281161
   56  F  5  Z   -0.293731   0.018904   0.036967   0.066976  -0.201035
   57  F  5 XX    0.246193  -0.069808   0.121547   0.138915   0.208119
   58  F  5 YY    0.449996  -0.089122   0.129913  -0.085551  -0.120603
   59  F  5 ZZ   -0.267907   0.287795  -0.128734   0.161907  -0.110361
   60  F  5 XY    0.132504   0.355775   0.122710  -0.067452  -0.357021
   61  F  5 XZ   -0.201596  -0.021891   0.218919   0.163678  -0.162838
   62  F  5 YZ   -0.002985  -0.042265  -0.094031  -0.045557  -0.345150
   63  H  6  S   -0.410167   0.270680  -0.128559  -0.076738  -0.433177
   64  H  6  S    0.014441  -0.012895  -0.017667   0.037702  -0.121838
   65  H  7  S    0.353615   0.293741   0.298066   0.031060   0.210880
   66  H  7  S    0.053132   0.073961  -0.035229  -0.070016  -0.105041

                     56         57         58         59         60
                    2.7243     2.8087     2.8493     3.0682     3.1587
                     A          A          A          A          A   
    1  C  1  S    0.032468   0.020660  -0.002822   0.059343  -0.003291
    2  C  1  S    0.012724   0.096595   0.097079  -0.147569  -0.015669
    3  C  1  X   -0.167310  -0.126890   0.049325  -0.182718   0.297520
    4  C  1  Y    0.182698   0.107170   0.080122   0.312454   0.094076
    5  C  1  Z    0.003047  -0.032863  -0.044084   0.031729   0.034972
    6  C  1  S   -1.578478  -0.865462  -0.091515  -1.325835   0.330787
    7  C  1  X   -0.659659  -0.266019   0.020530  -0.442391   0.333690
    8  C  1  Y    0.508264   0.420743   0.095889   0.440919   0.057144
    9  C  1  Z    0.229775   0.023394  -0.165748   0.014274  -0.031906
   10  C  1 XX    0.321124  -0.088174  -0.177663  -0.321609   0.263402
   11  C  1 YY   -0.194534  -0.234068  -0.241478  -0.093345  -0.349575
   12  C  1 ZZ   -0.225483   0.296862   0.349671   0.451552  -0.025239
   13  C  1 XY    0.142380  -0.010531  -0.151719   0.853932  -0.275602
   14  C  1 XZ    0.133816   0.444195   0.593078  -0.129863  -0.128162
   15  C  1 YZ   -0.567590  -0.181079   0.301101   0.092691  -0.084850
   16  C  2  S   -0.023457  -0.029817  -0.015506  -0.043951   0.002672
   17  C  2  S   -0.109242   0.013305   0.103223   0.282341  -0.772335
   18  C  2  X   -0.153706  -0.071058  -0.039008  -0.198325  -0.580927
   19  C  2  Y   -0.000129   0.077167   0.021579   0.306650  -0.539454
   20  C  2  Z   -0.134281   0.118776  -0.135970  -0.001189   0.177742
   21  C  2  S    1.762590   0.972287   0.092323   1.366335  -1.400477
   22  C  2  X   -0.530179  -0.243388   0.010950  -0.392310  -0.233869
   23  C  2  Y    1.087047   0.399763  -0.230816   0.271395  -0.925467
   24  C  2  Z   -0.285862   0.116882  -0.119171   0.019287   0.213495
   25  C  2 XX   -0.057759   0.254960   0.050736   0.603391   0.326424
   26  C  2 YY    0.039042   0.158810  -0.178862  -0.259742  -0.703092
   27  C  2 ZZ   -0.031894  -0.500789   0.026232  -0.346750   0.350695
   28  C  2 XY   -0.532669  -0.043673  -0.067609  -0.745984  -0.216592
   29  C  2 XZ    0.075651   0.706393  -0.380055  -0.120413   0.114729
   30  C  2 YZ   -0.408402   0.105645  -0.375804   0.143824   0.256595
   31  O  3  S   -0.000067   0.007394   0.010382   0.014306  -0.041699
   32  O  3  S    0.528135   0.095871  -0.089711   0.141494  -0.725820
   33  O  3  X   -0.262939  -0.026034   0.068905  -0.086791  -0.019924
   34  O  3  Y   -0.039633  -0.004732   0.037645  -0.055663  -0.025769
   35  O  3  Z    0.012905   0.014722  -0.019308   0.029450   0.020213
   36  O  3  S   -1.139068  -0.347164   0.061838  -0.427644   2.387455
   37  O  3  X    0.601595   0.103124  -0.025340   0.100107  -1.296995
   38  O  3  Y   -0.108688  -0.055845   0.064146   0.322132  -0.353991
   39  O  3  Z    0.152841  -0.326936   0.238627  -0.076608   0.187892
   40  O  3 XX   -0.226364   0.132253  -0.027852   0.324376   0.893132
   41  O  3 YY    0.065527   0.117473  -0.202155  -0.306139  -0.402404
   42  O  3 ZZ    0.299823  -0.183105   0.261682   0.137309  -0.564823
   43  O  3 XY    0.154382   0.225336  -0.091767  -0.329002   0.388642
   44  O  3 XZ   -0.368313   0.513492  -0.435546   0.035525  -0.249382
   45  O  3 YZ   -0.065651   0.457475  -0.179073   0.096730  -0.106493
   46  H  4  S   -0.074063  -0.109602  -0.012360   0.047635   0.334001
   47  H  4  S    0.345895   0.087967  -0.136072  -0.095674  -0.393191
   48  F  5  S    0.009144  -0.007639  -0.003006  -0.005007  -0.009260
   49  F  5  S   -0.232771  -0.075986  -0.024177  -0.205075  -0.276447
   50  F  5  X   -0.193364  -0.019189  -0.000218  -0.093300  -0.086129
   51  F  5  Y    0.008680   0.052492   0.036506  -0.060126  -0.001041
   52  F  5  Z    0.011456  -0.048381  -0.115938  -0.013238  -0.006648
   53  F  5  S    0.327345   0.243908   0.078900   0.419208   0.603982
   54  F  5  X    0.288264   0.078694   0.009275   0.172101   0.329086
   55  F  5  Y   -0.130813  -0.157052  -0.095549   0.143314  -0.001878
   56  F  5  Z   -0.093039   0.142654   0.332513   0.013380   0.033699
   57  F  5 XX    0.272282  -0.029242  -0.094833  -0.148785   0.320554
   58  F  5 YY   -0.296478  -0.178702  -0.122294   0.160771  -0.282549
   59  F  5 ZZ   -0.060226   0.105887   0.185207  -0.160122  -0.180182
   60  F  5 XY   -0.203974  -0.253986  -0.186604   0.270666  -0.064963
[...]
                   Y-0.012918-0.023594 0.009104 0.003871-0.000734 0.004000
                   Z 0.012472 0.014377 0.000475-0.000926 0.000303-0.000873
  7   H            X-0.024984-0.168894 0.044153-0.004357-0.002692 0.014167
                   Y 0.006337 0.024469-0.011485 0.001082-0.004044-0.008220
                   Z 0.008016-0.013936-0.044081 0.001178 0.001134 0.009695

                                   5                          6
                               F                          H         
                          X        Y        Z        X        Y        Z
  5   F            X 0.382976 0.111954 0.085660-0.014462-0.007176-0.009927
                   Y 0.111954 0.082998 0.040661-0.028024-0.007560-0.001977
                   Z 0.085660 0.040661 0.059660-0.041479-0.014206-0.002134
  6   H            X-0.014462-0.028024-0.041479 0.071275-0.003532-0.004181
                   Y-0.007176-0.007560-0.014206-0.003532 0.114100 0.154154
                   Z-0.009927-0.001977-0.002134-0.004181 0.154154 0.284410
  7   H            X 0.016024 0.022926-0.024117-0.013270-0.023644 0.013967
                   Y-0.004556-0.009110 0.003300 0.006372 0.012230-0.007449
                   Z-0.003280-0.006647 0.005703 0.003186 0.007375-0.008436

                                   7
                               H         
                          X        Y        Z
  7   H            X-0.191178 0.082142-0.029447
                   Y 0.082142 0.118408-0.036810
                   Z-0.029447-0.036810 0.079192

          ------------------------          ----------------
          DIPOLE DERIVATIVE TENSOR          (DEBYE/ANGSTROM)
          ------------------------          ----------------

        ATOM                 MU-X           MU-Y           MU-Z
     C          D/DX     3.521167049    0.981685158    1.027994139
                D/DY     3.148322871   -2.339988155    0.472501806
                D/DZ     0.805102175    1.390063264    0.311814401
     C          D/DX     5.066990412   -2.165344208   -0.562735766
                D/DY     0.263874833    3.290080320   -0.464137504
                D/DZ    -0.830128848   -0.090253090    1.599089444
     O          D/DX    -7.443475945    0.591498812    0.537544250
                D/DY     0.478258673   -1.389639648    0.324493288
                D/DZ     0.101955942   -0.094333896   -1.887003584
     H          D/DX     0.446612091    0.253798494   -0.139872157
                D/DY     0.061840261   -0.259030914    0.134261386
                D/DZ     0.213891496   -0.229220058    0.626436624
     F          D/DX    -5.496855141   -0.644408629   -0.843696897
                D/DY    -2.215881997   -1.397594167   -0.462176820
                D/DZ    -0.450175041   -0.187290466   -1.236277285
     H          D/DX    -0.303488032    0.212704972    0.067007696
                D/DY    -0.518105696    1.210561564   -0.118344485
                D/DZ     0.204364498   -0.967364739   -0.309679750
     H          D/DX     4.209030371    0.770148401   -0.086239376
                D/DY    -1.218105338    0.885359789    0.113448767
                D/DZ    -0.045022389    0.178346658    0.895712096

          --------------------------------------------------------
          NORMAL COORDINATE ANALYSIS IN THE HARMONIC APPROXIMATION
          --------------------------------------------------------

          ATOMIC WEIGHTS (AMU)

    1     C                12.00000
    2     C                12.00000
    3     O                15.99491
    4     H                 1.00782
    5     F                18.99840
    6     H                 1.00782
    7     H                 1.00782

 MODES 2 TO 7 ARE TAKEN AS ROTATIONS AND TRANSLATIONS.

 ANALYZING SYMMETRY OF NORMAL MODES...

     FREQUENCIES IN CM**-1, IR INTENSITIES IN DEBYE**2/AMU-ANGSTROM**2,
     REDUCED MASSES IN AMU.

                          1           2           3           4           5
       FREQUENCY:      2522.73 I      7.38        0.41        0.16        0.14  
        SYMMETRY:         A           A           A           A           A   
    REDUCED MASS:      1.09296     2.13637     9.30210     9.02071     8.87185
    IR INTENSITY:     14.11613     0.20483     0.00046     0.00039     0.00020

  1   C            X -0.01559640 -0.00465913 -0.02100496  0.08593043  0.08990462
                   Y -0.03557235  0.03462337  0.05716638  0.09954482 -0.07035582
                   Z  0.00355203 -0.12055626  0.10714978 -0.02601610  0.05816095
  2   C            X -0.05371567 -0.00065171 -0.03129528  0.07415594  0.09785890
                   Y -0.00060851  0.03251421  0.04469397  0.08523916 -0.06060329
                   Z  0.00532714  0.15736773  0.11212764 -0.01903014  0.04992730
  3   O            X -0.00270258  0.00520738 -0.02820266  0.08331149  0.09206926
                   Y  0.04180865 -0.03407809  0.02719025  0.07066706 -0.04933554
                   Z -0.00900061  0.00999122  0.07936191 -0.02100797  0.05641455
  4   H            X  0.00457851 -0.00139952 -0.04051481  0.06015447  0.10707406
                   Y -0.00005151  0.07163340  0.04756145  0.08518693 -0.06137806
                   Z -0.06404313  0.44280980  0.13724619 -0.01300185  0.04006246
  5   F            X -0.00504930  0.00575288 -0.03066914  0.08018328  0.09416067
                   Y -0.00552608 -0.04362015  0.06374460  0.11395559 -0.07851475
                   Z  0.00582866 -0.03083271  0.13874870 -0.02548187  0.05339520
  6   H            X  0.04737598 -0.03626798 -0.00020239  0.09098108  0.08517376
                   Y  0.10146681  0.28761168  0.08060530  0.10488361 -0.07921483
                   Z -0.06892306 -0.25890017  0.09445306 -0.02890672  0.06297581
  7   H            X  0.91140545  0.00898477 -0.02235635  0.09487796  0.08459799
                   Y -0.22996886 -0.09610588  0.03069028  0.08009955 -0.05445135
                   Z  0.06021849 -0.24644957  0.07123376 -0.02725017  0.06425849

 TRANS. SAYVETZ    X -0.00000277  0.09994969 -1.72493352  5.02488877  5.79371598
                   Y  0.00000908 -0.30293984  3.02837527  5.78497914 -4.04885197
                   Z  0.00000443 -0.04725525  6.84202247 -1.43039006  3.38243381
               TOTAL  0.00001048  0.32248340  7.67852355  7.79496674  7.83589214

   ROT. SAYVETZ    X -0.00002691 -6.32556778 -0.58468435 -0.13198540  0.22056188
                   Y  0.00000199 -6.50267694  3.31132400 -0.36005275 -0.04845032
                   Z  0.00000964  0.79825634 -2.40524223 -2.86306029  1.92641892
               TOTAL  0.00002865  9.10685611  4.13423664  2.88862811  1.93960945

                          6           7           8           9          10
       FREQUENCY:         1.49        2.17      324.51      445.90      717.55  
        SYMMETRY:         A           A           A           A           A   
    REDUCED MASS:      8.59872     8.31409     6.11063     4.36071     3.96365
    IR INTENSITY:      0.01580     0.02284     0.35691     0.51258     1.62316

  1   C            X -0.03795883 -0.01849460 -0.01651647  0.00100208  0.04929874
                   Y -0.01336208 -0.00320685  0.07540518  0.12876509 -0.07402719
                   Z  0.00970312  0.01878954  0.15485041 -0.04617857  0.00913950
  2   C            X  0.04459407 -0.02228718 -0.03331594 -0.08951942 -0.07618606
                   Y  0.08590415 -0.00816844  0.03591722  0.06676408 -0.05387720
                   Z  0.00211553  0.03461877  0.07424237 -0.08865974  0.00135323
  3   O            X -0.01524651  0.00543000 -0.03495885  0.01720723 -0.12132682
                   Y  0.18064160  0.00891487 -0.04126176 -0.05848986  0.05393687
                   Z  0.01375430  0.18475881 -0.10094571  0.06146038  0.01084705
  4   H            X  0.14008152 -0.04202748 -0.06335412 -0.30991083 -0.08229580
                   Y  0.09013727 -0.02162544  0.03488009  0.03246654 -0.06252092
                   Z -0.01073555 -0.05442048  0.08338226 -0.23224355 -0.07703538
  5   F            X  0.00645052  0.00306816  0.06932670  0.05673326  0.12523140
                   Y -0.12132414  0.02939265 -0.03468193 -0.08522039  0.02778676
                   Z -0.00032792 -0.13393366 -0.07973111  0.04644320  0.00259541
  6   H            X -0.08789410 -0.09954344 -0.15408042 -0.01608474  0.14744571
                   Y -0.02545948 -0.08799936 -0.06281121  0.10540740  0.28359485
                   Z  0.01605648  0.06469246  0.22965979 -0.03425896 -0.19725494
  7   H            X -0.09257656  0.03065387  0.05876567  0.03737889 -0.18019338
                   Y  0.10891676  0.03396971  0.01098555  0.06872537 -0.07795712
                   Z  0.02164434  0.18875142  0.06428506  0.02104222 -0.07171134

 TRANS. SAYVETZ    X -0.08239929 -0.45602385  0.00003320 -0.00001390 -0.00000691
                   Y  1.62983947  0.48825512 -0.00008873 -0.00002509  0.00000322
                   Z  0.38276886  1.25215587  0.00001203 -0.00004099  0.00000994
               TOTAL  1.67620952  1.41924104  0.00009550  0.00005003  0.00001252

   ROT. SAYVETZ    X  0.29185472  2.12031730 -0.00236118  0.00009586  0.00064268
                   Y -0.68893880-18.40894650  0.00075182 -0.00026443 -0.00019413
                   Z 19.98823480 -1.41173166  0.00043440  0.00057637  0.00006530
               TOTAL 20.00223353 18.58434941  0.00251577  0.00064134  0.00067453

                         11          12          13          14          15
       FREQUENCY:       731.01     1079.69     1210.15     1270.52     1314.22  
        SYMMETRY:         A           A           A           A           A   
    REDUCED MASS:      1.74914     1.78710     2.13636     2.15490     1.13276
    IR INTENSITY:      4.79345     1.53589     1.60989     1.06484     1.77128

  1   C            X -0.02810068 -0.00397079 -0.03637136  0.16019476  0.06522299
                   Y -0.08405360 -0.12146076 -0.08729588  0.03082020 -0.00888184
                   Z  0.10256867  0.02456545 -0.09662396  0.02074097 -0.02891694
  2   C            X  0.00284816 -0.06444044 -0.01558996 -0.00481783  0.02535549
                   Y  0.06487049  0.10553421  0.07651200 -0.01893762 -0.01463171
                   Z  0.00906725 -0.07955599  0.12963631  0.04789014  0.01058952
  3   O            X  0.09213052  0.03475508  0.01552881 -0.00778429 -0.02962017
                   Y -0.01783798 -0.01260203 -0.00498634  0.04708719 -0.01221742
                   Z -0.01190652  0.00526516 -0.03655995 -0.01013441 -0.03224179
  4   H            X -0.15963620 -0.26477073 -0.28479048 -0.48546983 -0.07794169
                   Y  0.00779291  0.19330176 -0.01214910 -0.06207320 -0.00301971
                   Z -0.32526578  0.57583015 -0.41692129 -0.07065447  0.10633468
  5   F            X -0.04116100  0.01737078  0.04020343 -0.08499180 -0.02338220
                   Y  0.00069254  0.01260823  0.02790249 -0.03568800 -0.01013906
                   Z -0.02356825 -0.00376947  0.02168928 -0.03083089  0.00305259
  6   H            X -0.08770657  0.20304371 -0.07213473  0.38511628 -0.14363392
                   Y  0.54187120 -0.15721509 -0.37018959 -0.08434315  0.25397085
                   Z -0.27115844  0.03899262  0.07357530  0.09028144 -0.18433588
  7   H            X -0.13825193 -0.00276701 -0.02870103 -0.02397590  0.05393345
                   Y -0.05119986  0.11588966  0.06389245 -0.06963166  0.41405531
                   Z -0.09958168  0.02745401  0.12164174 -0.09478197  0.75038942

 TRANS. SAYVETZ    X -0.00001591 -0.00001212  0.00000323  0.00000377 -0.00000861
                   Y  0.00000769  0.00001480  0.00000200 -0.00000706  0.00000500
                   Z -0.00002390  0.00001791 -0.00000235 -0.00000637  0.00001047
               TOTAL  0.00002972  0.00002621  0.00000447  0.00001023  0.00001445

   ROT. SAYVETZ    X  0.00072462  0.00039421 -0.00063728 -0.00012374  0.00007390
                   Y -0.00018095 -0.00005574  0.00006446 -0.00011388  0.00001587
                   Z -0.00033396 -0.00003159  0.00006389  0.00024408  0.00008620
               TOTAL  0.00081814  0.00039938  0.00064371  0.00029641  0.00011464

                         16          17          18          19          20
       FREQUENCY:      1414.41     1544.81     1736.52     2112.20     3256.55  
        SYMMETRY:         A           A           A           A           A   
    REDUCED MASS:      1.33043     2.04959     4.37490     1.07474     1.08197
    IR INTENSITY:      0.96682     2.91818     4.50187     0.97934     0.25184

  1   C            X  0.02372235 -0.16367575 -0.05640255 -0.00711096  0.00452496
                   Y -0.01004045  0.04712000 -0.00835619 -0.01291067 -0.04197609
                   Z  0.00250252 -0.00448512  0.01272776  0.01553086 -0.06662968
  2   C            X -0.03264951  0.01174695  0.19893024 -0.03313778 -0.00193429
                   Y  0.10069870 -0.08825750  0.05557839 -0.05660311 -0.00156975
                   Z  0.02840477  0.02182312 -0.03036032  0.02376414 -0.00206101
  3   O            X -0.04000679  0.06174114 -0.11520982  0.01425929  0.00074543
                   Y -0.06256410  0.03482318 -0.05173200  0.00508564 -0.00041858
                   Z  0.00781544 -0.02149794  0.02869433  0.00339144  0.00037372
  4   H            X  0.54997544 -0.17702263 -0.30113654  0.01150783 -0.00043537
                   Y  0.11737432 -0.11840006  0.02689855 -0.08518532  0.03982143
                   Z -0.22313112  0.05975517 -0.03427645 -0.04866262 -0.00471694
  5   F            X -0.02044056  0.02693817  0.00722775  0.00175543 -0.00065809
                   Y -0.01761573 -0.00358763  0.00551055 -0.00007239  0.00015939
                   Z -0.01886777 -0.00844753 -0.00309910 -0.00191081 -0.00038510
  6   H            X  0.58801985  0.57032821  0.12218663  0.01107008 -0.02455453
                   Y  0.02039210  0.09762278  0.06404563  0.00717511  0.47980744
                   Z -0.00435508  0.00055687 -0.01708495  0.00249237  0.82796452
  7   H            X -0.01144157 -0.07199829  0.17411273  0.19725776 -0.00528181
                   Y  0.10779545  0.02555230  0.06393113  0.82635380  0.00250464
                   Z  0.09111920  0.23367460 -0.13567312 -0.43951545 -0.00403223

 TRANS. SAYVETZ    X  0.00000010  0.00000208  0.00000239 -0.00000260  0.00000001
                   Y  0.00000440 -0.00000323 -0.00000339  0.00000301  0.00000217
                   Z  0.00000326 -0.00000387 -0.00000339 -0.00000266 -0.00000137
               TOTAL  0.00000548  0.00000545  0.00000535  0.00000479  0.00000257

   ROT. SAYVETZ    X -0.00010756  0.00000612  0.00003887 -0.00003634  0.00001509
                   Y -0.00029712 -0.00024245 -0.00001728  0.00003341  0.00001202
                   Z -0.00016147  0.00018735  0.00022085  0.00005911 -0.00000558
               TOTAL  0.00035486  0.00030646  0.00022491  0.00007701  0.00002008

                         21
       FREQUENCY:      3377.75  
        SYMMETRY:         A   
    REDUCED MASS:      1.09815
    IR INTENSITY:      0.28045

  1   C            X -0.00487060
                   Y  0.00448757
                   Z  0.00299997
  2   C            X  0.00551468
                   Y -0.08512269
                   Z  0.01180090
  3   O            X  0.00272738
                   Y  0.00152516
                   Z -0.00035720
  4   H            X -0.06475489
                   Y  0.93821590
                   Z -0.13083644
  5   F            X  0.00077239
                   Y -0.00001722
                   Z  0.00005126
  6   H            X  0.00228629
                   Y -0.01618888
                   Z -0.03208855
  7   H            X -0.00304622
                   Y  0.01420195
                   Z -0.00860379

 TRANS. SAYVETZ    X -0.00000016
                   Y  0.00000112
                   Z -0.00000006
               TOTAL  0.00000113

   ROT. SAYVETZ    X  0.00000303
                   Y -0.00000198
                   Z -0.00000616
               TOTAL  0.00000715

 REFERENCE ON SAYVETZ CONDITIONS - A. SAYVETZ, J.CHEM.PHYS., 7, 383-389(1939).

 NOTE - THE MODES J,K ARE ORTHONORMALIZED ACCORDING TO
 SUM ON I   M(I) * (X(I,J)*X(I,K) + Y(I,J)*Y(I,K) + Z(I,J)*Z(I,K)) = DELTA(J,K)

  MODE FREQ(CM**-1)  SYMMETRY  RED. MASS  IR INTENS.
     1    2522.727    A        1.092960   14.116131
     2       7.375    A        2.136366    0.204827
     3       0.408    A        9.302096    0.000459
     4       0.157    A        9.020709    0.000389
     5       0.138    A        8.871848    0.000204
     6       1.491    A        8.598717    0.015797
     7       2.173    A        8.314088    0.022844
     8     324.513    A        6.110626    0.356911
     9     445.896    A        4.360711    0.512578
    10     717.555    A        3.963649    1.623164
    11     731.014    A        1.749141    4.793446
    12    1079.688    A        1.787101    1.535889
    13    1210.146    A        2.136357    1.609887
    14    1270.521    A        2.154902    1.064840
    15    1314.224    A        1.132758    1.771278
    16    1414.409    A        1.330432    0.966817
    17    1544.808    A        2.049592    2.918180
    18    1736.522    A        4.374900    4.501869
    19    2112.204    A        1.074743    0.979338
    20    3256.546    A        1.081975    0.251835
    21    3377.747    A        1.098151    0.280449

     -------------------------------
     THERMOCHEMISTRY AT T=  298.15 K
     -------------------------------

 USING IDEAL GAS, RIGID ROTOR, HARMONIC NORMAL MODE APPROXIMATIONS.
 P=  1.01325E+05 PASCAL.
 ALL FREQUENCIES ARE SCALED BY   1.00000
 THE MOMENTS OF INERTIA ARE (IN AMU*BOHR**2)
     45.00166   392.74561   419.85313
 THE ROTATIONAL SYMMETRY NUMBER IS  1.0
 THE ROTATIONAL CONSTANTS ARE (IN GHZ)
     40.06715     4.59098     4.29457
   1 IMAGINARY FREQUENCY VIBRATION(S) IS(ARE) EXCLUDED
     FROM THE FOLLOWING THERMOCHEMICAL ANALYSIS.
 THE HARMONIC ZERO POINT ENERGY IS (SCALED BY   1.000)
        0.046784 HARTREE/MOLECULE    10267.896402 CM**-1/MOLECULE 
       29.357418 KCAL/MOL              122.831439 KJ/MOL

               Q               LN Q
 ELEC.     1.00000E+00       0.000000
 TRANS.    1.91963E+07      16.770228
 ROT.      3.08361E+04      10.336443
 VIB.      1.54316E+00       0.433835
 TOT.      9.13461E+11      27.540507

              E         H         G         CV        CP        S
           KJ/MOL    KJ/MOL    KJ/MOL   J/MOL-K   J/MOL-K   J/MOL-K
 ELEC.      0.000     0.000     0.000     0.000     0.000     0.000
 TRANS.     3.718     6.197   -41.572    12.472    20.786   160.221
 ROT.       3.718     3.718   -25.623    12.472    12.472    98.413
 VIB.     125.309   125.309   121.756    23.298    23.298    11.918
 TOTAL    132.746   135.225    54.560    48.241    56.556   270.552
 VIB. THERMAL CORRECTION E(T)-E(0) = H(T)-H(0) =  2478.027 J/MOL

              E         H         G         CV        CP        S
         KCAL/MOL  KCAL/MOL  KCAL/MOL CAL/MOL-K CAL/MOL-K CAL/MOL-K
 ELEC.      0.000     0.000     0.000     0.000     0.000     0.000
 TRANS.     0.889     1.481    -9.936     2.981     4.968    38.294
 ROT.       0.889     0.889    -6.124     2.981     2.981    23.521
 VIB.      29.950    29.950    29.100     5.568     5.568     2.849
 TOTAL     31.727    32.320    13.040    11.530    13.517    64.663
 VIB. THERMAL CORRECTION E(T)-E(0) = H(T)-H(0) =   592.263 CAL/MOL
 ......END OF NORMAL COORDINATE ANALYSIS......
 STEP CPU TIME =     0.00 TOTAL CPU TIME =        9.5 (    0.2 MIN)
 TOTAL WALL CLOCK TIME=        9.7 SECONDS, CPU UTILIZATION IS  98.65%
               580000  WORDS OF DYNAMIC MEMORY USED
 EXECUTION OF GAMESS TERMINATED NORMALLY Fri Nov  3 17:34:11 2017
 DDI: 263640 bytes (0.3 MB / 0 MWords) used by master data server.

 ----------------------------------------
 CPU timing information for all processes
 ========================================
 0: 9.405 + 0.126 = 9.531
 ----------------------------------------
 ddikick.x: exited gracefully.
